
     Program PWSCF v.6.7MaX starts on 13Jun2023 at 22:55:12 

     This program is part of the open-source Quantum ESPRESSO suite
     for quantum simulation of materials; please cite
         "P. Giannozzi et al., J. Phys.:Condens. Matter 21 395502 (2009);
         "P. Giannozzi et al., J. Phys.:Condens. Matter 29 465901 (2017);
          URL http://www.quantum-espresso.org", 
     in publications or presentations arising from this work. More details at
     http://www.quantum-espresso.org/quote

     Parallel version (MPI), running on     1 processors

     MPI processes distributed on     1 nodes
     Waiting for input...
     Reading input from standard input

     Current dimensions of program PWSCF are:
     Max number of different atomic species (ntypx) = 10
     Max number of k-points (npk) =  40000
     Max angular momentum in pseudopotentials (lmaxx) =  3

     Atomic positions and unit cell read from directory:
     ./tmp/Sb2Te3.save/
     Atomic positions from file used, from input discarded

     file Te.rel-pbe-n-rrkjus_psl.1.0.0.UPF: wavefunction(s)  5S renormalized
     file Sb.rel-pbe-n-rrkjus_psl.1.0.0.UPF: wavefunction(s)  5S renormalized

     Subspace diagonalization in iterative solution of the eigenvalue problem:
     a serial algorithm will be used

     Message from routine setup:
     using ibrav=0 with symmetry is DISCOURAGED, use correct ibrav instead

     G-vector sticks info
     --------------------
     sticks:   dense  smooth     PW     G-vecs:    dense   smooth      PW
     Sum        1843    1483    475               567491   406823   73019



     bravais-lattice index     =            0
     lattice parameter (alat)  =       8.1879  a.u.
     unit-cell volume          =    4205.5056 (a.u.)^3
     number of atoms/cell      =           15
     number of atomic types    =            2
     number of electrons       =        84.00
     number of Kohn-Sham states=          168
     kinetic-energy cutoff     =      80.0000  Ry
     charge density cutoff     =     400.0000  Ry
     Exchange-correlation= PBE
                           (   1   4   3   4   0   0   0)
     Non magnetic calculation with spin-orbit


     celldm(1)=   8.187881  celldm(2)=   0.000000  celldm(3)=   0.000000
     celldm(4)=   0.000000  celldm(5)=   0.000000  celldm(6)=   0.000000

     crystal axes: (cart. coord. in units of alat)
               a(1) = (   1.000000   0.000000   0.000000 )  
               a(2) = (  -0.500000   0.866026   0.000000 )  
               a(3) = (   0.000000   0.000000   8.846530 )  

     reciprocal axes: (cart. coord. in units 2 pi/alat)
               b(1) = (  1.000000  0.577350 -0.000000 )  
               b(2) = (  0.000000  1.154700  0.000000 )  
               b(3) = (  0.000000 -0.000000  0.113039 )  


     PseudoPot. # 1 for Te read from file:
     /home/yehlab/espresso/pseudo/Te.rel-pbe-n-rrkjus_psl.1.0.0.UPF
     MD5 check sum: 7fd30b6833abd190471e4dcc2367351b
     Pseudo is Ultrasoft + core correction, Zval =  6.0
     Generated using &quot;atomic&quot; code by A. Dal Corso  v.6.3
     Using radial grid of 1245 points, 10 beta functions with: 
                l(1) =   0
                l(2) =   0
                l(3) =   1
                l(4) =   1
                l(5) =   1
                l(6) =   1
                l(7) =   2
                l(8) =   2
                l(9) =   2
               l(10) =   2
     Q(r) pseudized with 0 coefficients 


     PseudoPot. # 2 for Sb read from file:
     /home/yehlab/espresso/pseudo/Sb.rel-pbe-n-rrkjus_psl.1.0.0.UPF
     MD5 check sum: c1afc134568783a62b80e43a202109b2
     Pseudo is Ultrasoft + core correction, Zval =  5.0
     Generated using &quot;atomic&quot; code by A. Dal Corso  v.6.2.2
     Using radial grid of 1243 points, 10 beta functions with: 
                l(1) =   0
                l(2) =   0
                l(3) =   1
                l(4) =   1
                l(5) =   1
                l(6) =   1
                l(7) =   2
                l(8) =   2
                l(9) =   2
               l(10) =   2
     Q(r) pseudized with 0 coefficients 


     atomic species   valence    mass     pseudopotential
        Te             6.00   127.60000     Te( 1.00)
        Sb             5.00   121.76000     Sb( 1.00)

     12 Sym. Ops., with inversion, found ( 6 have fractional translation)


                                    s                        frac. trans.

      isym =  1     identity                                     

 cryst.   s( 1) = (     1          0          0      )
                  (     0          1          0      )
                  (     0          0          1      )

 cart.    s( 1) = (  1.0000000  0.0000000  0.0000000 )
                  (  0.0000000  1.0000000  0.0000000 )
                  (  0.0000000  0.0000000  1.0000000 )


      isym =  2     180 deg rotation - cart. axis [1,0,0]        

 cryst.   s( 2) = (     1          0          0      )    f =( -0.3333330 )
                  (    -1         -1          0      )       (  0.3333340 )
                  (     0          0         -1      )       (  0.0000005 )

 cart.    s( 2) = (  1.0000000  0.0000000  0.0000000 )    f =( -0.5000000 )
                  (  0.0000000 -1.0000000  0.0000000 )       (  0.2886758 )
                  (  0.0000000  0.0000000 -1.0000000 )       (  0.0000044 )


      isym =  3     120 deg rotation - cryst. axis [0,0,1]       

 cryst.   s( 3) = (     0          1          0      )
                  (    -1         -1          0      )
                  (     0          0          1      )

 cart.    s( 3) = ( -0.5000000 -0.8660253  0.0000000 )
                  (  0.8660255 -0.5000000  0.0000000 )
                  (  0.0000000  0.0000000  1.0000000 )


      isym =  4     120 deg rotation - cryst. axis [0,0,-1]      

 cryst.   s( 4) = (    -1         -1          0      )
                  (     1          0          0      )
                  (     0          0          1      )

 cart.    s( 4) = ( -0.5000000  0.8660253  0.0000000 )
                  ( -0.8660255 -0.5000000  0.0000000 )
                  (  0.0000000  0.0000000  1.0000000 )


      isym =  5     180 deg rotation - cryst. axis [0,1,0]       

 cryst.   s( 5) = (    -1         -1          0      )    f =( -0.3333330 )
                  (     0          1          0      )       (  0.3333330 )
                  (     0          0         -1      )       (  0.0000005 )

 cart.    s( 5) = ( -0.5000000 -0.8660253  0.0000000 )    f =( -0.4999995 )
                  ( -0.8660255  0.5000000  0.0000000 )       (  0.2886749 )
                  (  0.0000000  0.0000000 -1.0000000 )       (  0.0000044 )


      isym =  6     180 deg rotation - cryst. axis [1,1,0]       

 cryst.   s( 6) = (     0          1          0      )    f =( -0.3333340 )
                  (     1          0          0      )       (  0.3333330 )
                  (     0          0         -1      )       (  0.0000005 )

 cart.    s( 6) = ( -0.5000000  0.8660253  0.0000000 )    f =( -0.5000005 )
                  (  0.8660255  0.5000000  0.0000000 )       (  0.2886749 )
                  (  0.0000000  0.0000000 -1.0000000 )       (  0.0000044 )


      isym =  7     inversion                                    

 cryst.   s( 7) = (    -1          0          0      )    f =( -0.3333330 )
                  (     0         -1          0      )       (  0.3333340 )
                  (     0          0         -1      )       (  0.0000005 )

 cart.    s( 7) = ( -1.0000000  0.0000000  0.0000000 )    f =( -0.5000000 )
                  (  0.0000000 -1.0000000  0.0000000 )       (  0.2886758 )
                  (  0.0000000  0.0000000 -1.0000000 )       (  0.0000044 )


      isym =  8     inv. 180 deg rotation - cart. axis [1,0,0]   

 cryst.   s( 8) = (    -1          0          0      )
                  (     1          1          0      )
                  (     0          0          1      )

 cart.    s( 8) = ( -1.0000000  0.0000000  0.0000000 )
                  (  0.0000000  1.0000000  0.0000000 )
                  (  0.0000000  0.0000000  1.0000000 )


      isym =  9     inv. 120 deg rotation - cryst. axis [0,0,1]  

 cryst.   s( 9) = (     0         -1          0      )    f =( -0.3333340 )
                  (     1          1          0      )       (  0.3333330 )
                  (     0          0         -1      )       (  0.0000005 )

 cart.    s( 9) = (  0.5000000  0.8660253  0.0000000 )    f =( -0.5000005 )
                  ( -0.8660255  0.5000000  0.0000000 )       (  0.2886749 )
                  (  0.0000000  0.0000000 -1.0000000 )       (  0.0000044 )


      isym = 10     inv. 120 deg rotation - cryst. axis [0,0,-1] 

 cryst.   s(10) = (     1          1          0      )    f =( -0.3333330 )
                  (    -1          0          0      )       (  0.3333330 )
                  (     0          0         -1      )       (  0.0000005 )

 cart.    s(10) = (  0.5000000 -0.8660253  0.0000000 )    f =( -0.4999995 )
                  (  0.8660255  0.5000000  0.0000000 )       (  0.2886749 )
                  (  0.0000000  0.0000000 -1.0000000 )       (  0.0000044 )


      isym = 11     inv. 180 deg rotation - cryst. axis [0,1,0]  

 cryst.   s(11) = (     1          1          0      )
                  (     0         -1          0      )
                  (     0          0          1      )

 cart.    s(11) = (  0.5000000  0.8660253  0.0000000 )
                  (  0.8660255 -0.5000000  0.0000000 )
                  (  0.0000000  0.0000000  1.0000000 )


      isym = 12     inv. 180 deg rotation - cryst. axis [1,1,0]  

 cryst.   s(12) = (     0         -1          0      )
                  (    -1          0          0      )
                  (     0          0          1      )

 cart.    s(12) = (  0.5000000 -0.8660253  0.0000000 )
                  ( -0.8660255 -0.5000000  0.0000000 )
                  (  0.0000000  0.0000000  1.0000000 )


   Cartesian axes

     site n.     atom                  positions (alat units)
         1           Te  tau(   1) = (   0.0000000   0.0000000   7.6884415  )
         2           Sb  tau(   2) = (   0.4999995   0.2886749   7.2936197  )
         3           Te  tau(   3) = (   0.0000000   0.5773497   6.8349907  )
         4           Sb  tau(   4) = (   0.0000000   0.0000000   6.3763617  )
         5           Te  tau(   5) = (   0.4999995   0.2886749   5.9815398  )
         6           Te  tau(   6) = (   0.0000000   0.5773497   5.2767118  )
         7           Sb  tau(   7) = (   0.0000000   0.0000000   4.8818899  )
         8           Te  tau(   8) = (   0.4999995   0.2886749   4.4232607  )
         9           Sb  tau(   9) = (   0.0000000   0.5773497   3.9646317  )
        10           Te  tau(  10) = (   0.0000000   0.0000000   3.5698099  )
        11           Te  tau(  11) = (   0.4999995   0.2886749   2.8649819  )
        12           Sb  tau(  12) = (   0.0000000   0.5773497   2.4701600  )
        13           Te  tau(  13) = (   0.0000000   0.0000000   2.0115310  )
        14           Sb  tau(  14) = (   0.4999995   0.2886749   1.5529062  )
        15           Te  tau(  15) = (   0.0000000   0.5773497   1.1580843  )

   Crystallographic axes

     site n.     atom                  positions (cryst. coord.)
         1           Te  tau(   1) = (  0.0000000  0.0000000  0.8690912  )
         2           Sb  tau(   2) = (  0.6666660  0.3333330  0.8244611  )
         3           Te  tau(   3) = (  0.3333330  0.6666660  0.7726182  )
         4           Sb  tau(   4) = (  0.0000000  0.0000000  0.7207754  )
         5           Te  tau(   5) = (  0.6666660  0.3333330  0.6761453  )
         6           Te  tau(   6) = (  0.3333330  0.6666660  0.5964725  )
         7           Sb  tau(   7) = (  0.0000000  0.0000000  0.5518423  )
         8           Te  tau(   8) = (  0.6666660  0.3333330  0.4999995  )
         9           Sb  tau(   9) = (  0.3333330  0.6666660  0.4481567  )
        10           Te  tau(  10) = (  0.0000000  0.0000000  0.4035266  )
        11           Te  tau(  11) = (  0.6666660  0.3333330  0.3238537  )
        12           Sb  tau(  12) = (  0.3333330  0.6666660  0.2792236  )
        13           Te  tau(  13) = (  0.0000000  0.0000000  0.2273808  )
        14           Sb  tau(  14) = (  0.6666660  0.3333330  0.1755384  )
        15           Te  tau(  15) = (  0.3333330  0.6666660  0.1309083  )

     number of k points=    16  Gaussian smearing, width (Ry)=  0.0100
                       cart. coord. in units 2pi/alat
        k(    1) = (   0.0000000   0.0000000   0.0000000), wk =   0.0625000
        k(    2) = (   0.0000000   0.2886751   0.0000000), wk =   0.0625000
        k(    3) = (   0.0000000   0.5773502   0.0000000), wk =   0.0625000
        k(    4) = (   0.0000000   0.8660253   0.0000000), wk =   0.0625000
        k(    5) = (   0.2500000   0.1443375   0.0000000), wk =   0.0625000
        k(    6) = (   0.2500000   0.4330126   0.0000000), wk =   0.0625000
        k(    7) = (   0.2500000   0.7216877   0.0000000), wk =   0.0625000
        k(    8) = (   0.2500000   1.0103628   0.0000000), wk =   0.0625000
        k(    9) = (   0.5000000   0.2886751   0.0000000), wk =   0.0625000
        k(   10) = (   0.5000000   0.5773502   0.0000000), wk =   0.0625000
        k(   11) = (   0.5000000   0.8660253   0.0000000), wk =   0.0625000
        k(   12) = (   0.5000000   1.1547004   0.0000000), wk =   0.0625000
        k(   13) = (   0.7500000   0.4330126   0.0000000), wk =   0.0625000
        k(   14) = (   0.7500000   0.7216877   0.0000000), wk =   0.0625000
        k(   15) = (   0.7500000   1.0103628   0.0000000), wk =   0.0625000
        k(   16) = (   0.7500000   1.2990379   0.0000000), wk =   0.0625000

                       cryst. coord.
        k(    1) = (   0.0000000   0.0000000   0.0000000), wk =   0.0625000
        k(    2) = (   0.0000000   0.2500000   0.0000000), wk =   0.0625000
        k(    3) = (   0.0000000   0.5000000   0.0000000), wk =   0.0625000
        k(    4) = (   0.0000000   0.7500000   0.0000000), wk =   0.0625000
        k(    5) = (   0.2500000   0.0000000   0.0000000), wk =   0.0625000
        k(    6) = (   0.2500000   0.2500000   0.0000000), wk =   0.0625000
        k(    7) = (   0.2500000   0.5000000   0.0000000), wk =   0.0625000
        k(    8) = (   0.2500000   0.7500000   0.0000000), wk =   0.0625000
        k(    9) = (   0.5000000   0.0000000   0.0000000), wk =   0.0625000
        k(   10) = (   0.5000000   0.2500000   0.0000000), wk =   0.0625000
        k(   11) = (   0.5000000   0.5000000   0.0000000), wk =   0.0625000
        k(   12) = (   0.5000000   0.7500000   0.0000000), wk =   0.0625000
        k(   13) = (   0.7500000   0.0000000   0.0000000), wk =   0.0625000
        k(   14) = (   0.7500000   0.2500000   0.0000000), wk =   0.0625000
        k(   15) = (   0.7500000   0.5000000   0.0000000), wk =   0.0625000
        k(   16) = (   0.7500000   0.7500000   0.0000000), wk =   0.0625000

     Dense  grid:   567491 G-vectors     FFT dimensions: (  54,  54, 480)

     Smooth grid:   406823 G-vectors     FFT dimensions: (  48,  48, 432)

     Dynamical RAM for                 wfc:     260.53 MB

     Dynamical RAM for     wfc (w. buffer):     260.53 MB

     Dynamical RAM for           str. fact:      17.32 MB

     Dynamical RAM for           local pot:       0.00 MB

     Dynamical RAM for          nlocal pot:     395.45 MB

     Dynamical RAM for                qrad:       8.41 MB

     Dynamical RAM for          rho,v,vnew:     232.06 MB

     Dynamical RAM for           G-vectors:      35.58 MB

     Dynamical RAM for          h,s,v(r/c):       5.17 MB

     Dynamical RAM for          <psi|beta>:       2.61 MB

     Dynamical RAM for                 psi:     521.06 MB

     Dynamical RAM for                hpsi:     521.06 MB

     Dynamical RAM for                spsi:     521.06 MB

     Dynamical RAM for      wfcinit/wfcrot:     391.44 MB

     Dynamical RAM for           addusdens:    5360.06 MB

     Estimated static dynamical RAM per process >       1.04 GB

     Estimated max dynamical RAM per process >       6.27 GB

     The potential is recalculated from file :
     ./tmp/Sb2Te3.save/charge-density

     Starting wfcs are  120 randomized atomic wfcs +   48 random wfcs

     Band Structure Calculation
     Davidson diagonalization with overlap

     Computing kpt #:     1  of    16
     total cpu time spent up to now is      600.6 secs

     Computing kpt #:     2  of    16
     total cpu time spent up to now is     1456.1 secs

     Computing kpt #:     3  of    16
     total cpu time spent up to now is     2236.5 secs

     Computing kpt #:     4  of    16
     c_bands:  2 eigenvalues not converged
     total cpu time spent up to now is     2943.3 secs

     Computing kpt #:     5  of    16
     total cpu time spent up to now is     3692.9 secs

     Computing kpt #:     6  of    16
     total cpu time spent up to now is     4319.1 secs

     Computing kpt #:     7  of    16
     total cpu time spent up to now is     4938.8 secs

     Computing kpt #:     8  of    16
     c_bands:  2 eigenvalues not converged
     total cpu time spent up to now is     5662.3 secs

     Computing kpt #:     9  of    16
     total cpu time spent up to now is     6504.2 secs

     Computing kpt #:    10  of    16
     total cpu time spent up to now is     7144.8 secs

     Computing kpt #:    11  of    16
     c_bands:  1 eigenvalues not converged
     total cpu time spent up to now is     7987.9 secs

     Computing kpt #:    12  of    16
     total cpu time spent up to now is     8563.1 secs

     Computing kpt #:    13  of    16
     c_bands:  2 eigenvalues not converged
     total cpu time spent up to now is     9243.2 secs

     Computing kpt #:    14  of    16
     c_bands:  2 eigenvalues not converged
     total cpu time spent up to now is     9945.4 secs

     Computing kpt #:    15  of    16
     total cpu time spent up to now is    10525.2 secs

     Computing kpt #:    16  of    16
     total cpu time spent up to now is    11119.2 secs

     ethr =  1.19E-10,  avg # of iterations = 96.6

     total cpu time spent up to now is    11120.7 secs

     End of band structure calculation

          k = 0.0000 0.0000 0.0000 ( 50865 PWs)   bands (ev):

    -9.0671  -9.0671  -9.0013  -9.0013  -8.9738  -8.9738  -8.5740  -8.5740
    -8.4499  -8.4499  -8.3839  -8.3839  -7.5209  -7.5209  -7.3932  -7.3932
    -7.3258  -7.3258  -4.8621  -4.8621  -4.6830  -4.6830  -4.5382  -4.5382
    -3.4062  -3.4062  -3.2174  -3.2174  -3.0880  -3.0880   0.8371   0.8371
     1.0448   1.0448   1.2557   1.2557   1.5136   1.5136   1.6577   1.6577
     1.7393   1.7393   1.7613   1.7613   1.8532   1.8532   1.9965   1.9965
     2.1300   2.1300   2.1492   2.1492   2.1759   2.1759   2.1788   2.1788
     2.1872   2.1872   2.3004   2.3004   2.3086   2.3086   2.3229   2.3229
     2.3989   2.3989   2.4186   2.4186   2.5425   2.5425   2.8913   2.8913
     2.9043   2.9043   2.9739   2.9739   2.9789   2.9789   3.0006   3.0006
     3.4591   3.4591   3.6828   3.6828   3.7654   3.7654   3.9142   3.9142
     3.9692   3.9692   4.3336   4.3336   4.4817   4.4817   4.6050   4.6050
     4.6217   4.6217   4.7314   4.7314   4.8147   4.8147   4.9110   4.9110
     4.9989   4.9989   5.0371   5.0371   5.7082   5.7082   5.7263   5.7263
     5.7857   5.7857   5.8416   5.8416   5.8587   5.8587   5.9347   5.9347
     7.7321   7.7321   8.2826   8.2826   8.4901   8.4901   8.5928   8.5928
     8.7724   8.7724   9.2307   9.2307   9.2613   9.2613   9.3394   9.3394
     9.3679   9.3679   9.4094   9.4094   9.4343   9.4343   9.4761   9.4761
     9.5674   9.5674  10.0908  10.0908  10.1787  10.1787  10.3491  10.3491
    10.3500  10.3500  10.3950  10.3950  10.5880  10.5880  10.6113  10.6113
    10.6311  10.6311  10.7298  10.7298  10.8612  10.8612  10.8813  10.8813

     occupation numbers 
     1.0000   1.0000   1.0000   1.0000   1.0000   1.0000   1.0000   1.0000
     1.0000   1.0000   1.0000   1.0000   1.0000   1.0000   1.0000   1.0000
     1.0000   1.0000   1.0000   1.0000   1.0000   1.0000   1.0000   1.0000
     1.0000   1.0000   1.0000   1.0000   1.0000   1.0000   1.0000   1.0000
     1.0000   1.0000   1.0000   1.0000   1.0000   1.0000   1.0000   1.0000
     1.0000   1.0000   1.0000   1.0000   1.0000   1.0000   1.0000   1.0000
     1.0000   1.0000   1.0000   1.0000   1.0000   1.0000   1.0000   1.0000
     1.0000   1.0000   1.0000   1.0000   1.0000   1.0000   1.0000   1.0000
     1.0000   1.0000   1.0000   1.0000   1.0000   1.0000   1.0000   1.0000
     1.0000   1.0000   1.0000   1.0000   1.0000   1.0000   1.0000   1.0000
     0.9987   0.9987   0.7504   0.7504   0.4272   0.4272   0.0418   0.0418
     0.0107   0.0107   0.0000   0.0000   0.0000   0.0000   0.0000   0.0000
     0.0000   0.0000   0.0000   0.0000   0.0000   0.0000   0.0000   0.0000
     0.0000   0.0000   0.0000   0.0000   0.0000   0.0000   0.0000   0.0000
     0.0000   0.0000   0.0000   0.0000   0.0000   0.0000   0.0000   0.0000
     0.0000   0.0000   0.0000   0.0000   0.0000   0.0000   0.0000   0.0000
     0.0000   0.0000   0.0000   0.0000   0.0000   0.0000   0.0000   0.0000
     0.0000   0.0000   0.0000   0.0000   0.0000   0.0000   0.0000   0.0000
     0.0000   0.0000   0.0000   0.0000   0.0000   0.0000   0.0000   0.0000
     0.0000   0.0000   0.0000   0.0000   0.0000   0.0000   0.0000   0.0000
     0.0000   0.0000   0.0000   0.0000   0.0000   0.0000   0.0000   0.0000

          k = 0.0000 0.2887 0.0000 ( 50878 PWs)   bands (ev):

    -8.5407  -8.5407  -8.4759  -8.4759  -8.4491  -8.4491  -8.1003  -8.1003
    -7.9809  -7.9809  -7.9203  -7.9203  -7.2435  -7.2435  -7.1345  -7.1345
    -7.0861  -7.0861  -4.9370  -4.9370  -4.8323  -4.8323  -4.7690  -4.7690
    -4.1353  -4.1353  -4.0532  -4.0532  -4.0194  -4.0193  -0.5639  -0.5639
    -0.4542  -0.4541  -0.3671  -0.3669   0.1800   0.1801   0.3647   0.3651
     0.4066   0.4074   0.4813   0.4816   0.6089   0.6092   0.8025   0.8029
     0.9798   0.9798   1.0372   1.0382   1.0791   1.0804   1.2933   1.2937
     1.3379   1.3382   1.4197   1.4197   1.6567   1.6568   1.8037   1.8037
     2.0375   2.0375   2.1730   2.1731   2.2993   2.2994   2.4565   2.4567
     2.5856   2.5857   2.7369   2.7370   2.8702   2.8703   3.1416   3.1417
     3.3820   3.3821   3.5771   3.5771   4.2854   4.2854   4.5223   4.5224
     4.7479   4.7479   4.9248   4.9248   5.0860   5.0861   5.2456   5.2457
     5.3134   5.3134   5.5197   5.5198   5.7337   5.7337   5.8668   5.8669
     5.9484   5.9485   6.0260   6.0262   6.3998   6.3998   6.5177   6.5177
     6.6224   6.6224   6.8599   6.8600   7.0651   7.0651   7.2452   7.2452
     7.5087   7.5092   7.5467   7.5467   7.5873   7.5879   8.4197   8.4197
     8.8376   8.8377   8.9528   8.9528   9.2681   9.2682   9.3883   9.3884
     9.6078   9.6079   9.7306   9.7307   9.8294   9.8294  10.1094  10.1094
    10.3004  10.3004  10.4098  10.4099  10.4229  10.4229  10.5271  10.5271
    10.6239  10.6239  10.7444  10.7444  10.9166  10.9168  11.1226  11.1226
    11.1357  11.1357  11.3586  11.3586  11.4309  11.4309  11.5881  11.5881

     occupation numbers 
     1.0000   1.0000   1.0000   1.0000   1.0000   1.0000   1.0000   1.0000
     1.0000   1.0000   1.0000   1.0000   1.0000   1.0000   1.0000   1.0000
     1.0000   1.0000   1.0000   1.0000   1.0000   1.0000   1.0000   1.0000
     1.0000   1.0000   1.0000   1.0000   1.0000   1.0000   1.0000   1.0000
     1.0000   1.0000   1.0000   1.0000   1.0000   1.0000   1.0000   1.0000
     1.0000   1.0000   1.0000   1.0000   1.0000   1.0000   1.0000   1.0000
     1.0000   1.0000   1.0000   1.0000   1.0000   1.0000   1.0000   1.0000
     1.0000   1.0000   1.0000   1.0000   1.0000   1.0000   1.0000   1.0000
     1.0000   1.0000   1.0000   1.0000   1.0000   1.0000   1.0000   1.0000
     1.0000   1.0000   1.0000   1.0000   1.0000   1.0000   1.0000   1.0000
     0.9999   0.9999   0.9620   0.9619   0.0000   0.0000   0.0000   0.0000
     0.0000   0.0000   0.0000   0.0000   0.0000   0.0000   0.0000   0.0000
     0.0000   0.0000   0.0000   0.0000   0.0000   0.0000   0.0000   0.0000
     0.0000   0.0000   0.0000   0.0000   0.0000   0.0000   0.0000   0.0000
     0.0000   0.0000   0.0000   0.0000   0.0000   0.0000   0.0000   0.0000
     0.0000   0.0000   0.0000   0.0000   0.0000   0.0000   0.0000   0.0000
     0.0000   0.0000   0.0000   0.0000   0.0000   0.0000   0.0000   0.0000
     0.0000   0.0000   0.0000   0.0000   0.0000   0.0000   0.0000   0.0000
     0.0000   0.0000   0.0000   0.0000   0.0000   0.0000   0.0000   0.0000
     0.0000   0.0000   0.0000   0.0000   0.0000   0.0000   0.0000   0.0000
     0.0000   0.0000   0.0000   0.0000   0.0000   0.0000   0.0000   0.0000

          k = 0.0000 0.5774 0.0000 ( 50824 PWs)   bands (ev):

    -7.3680  -7.3680  -7.3527  -7.3527  -7.2926  -7.2926  -7.2593  -7.2593
    -7.2570  -7.2570  -7.2524  -7.2524  -7.2371  -7.2371  -7.1858  -7.1858
    -7.1840  -7.1840  -5.6653  -5.6653  -5.6085  -5.6085  -5.5875  -5.5875
    -5.0927  -5.0927  -5.0351  -5.0351  -5.0181  -5.0181  -1.5411  -1.5411
    -1.4355  -1.4355  -1.3692  -1.3692  -0.3539  -0.3539  -0.2025  -0.2025
    -0.0962  -0.0962  -0.0698  -0.0698   0.0313   0.0313   0.0986   0.0986
     0.4158   0.4158   0.4933   0.4933   0.5406   0.5406   0.6774   0.6774
     0.8711   0.8711   0.9809   0.9809   1.1285   1.1285   1.3669   1.3669
     1.6536   1.6536   1.6578   1.6578   1.8556   1.8556   1.8875   1.8875
     2.4921   2.4921   2.5675   2.5675   2.5734   2.5734   2.7120   2.7120
     2.8298   2.8298   3.1126   3.1126   4.2941   4.2941   4.5388   4.5388
     4.7079   4.7079   4.8727   4.8727   4.9927   4.9927   5.2203   5.2203
     5.3195   5.3195   5.4391   5.4391   5.8200   5.8200   6.1955   6.1955
     6.2923   6.2923   6.3561   6.3561   6.7718   6.7718   6.8169   6.8169
     6.8715   6.8715   6.9250   6.9250   7.0881   7.0881   7.1410   7.1410
     7.3337   7.3337   7.7562   7.7562   8.2114   8.2114   8.6558   8.6558
     8.7422   8.7422   8.9130   8.9130   9.9768   9.9768  10.2575  10.2575
    10.4312  10.4312  10.5237  10.5237  10.8010  10.8010  11.2138  11.2138
    11.6712  11.6712  11.9244  11.9244  12.1344  12.1344  12.2005  12.2005
    12.2529  12.2529  12.2784  12.2784  12.4476  12.4476  12.5868  12.5868
    12.6503  12.6503  12.9820  12.9820  12.9920  12.9920  13.0551  13.0551

     occupation numbers 
     1.0000   1.0000   1.0000   1.0000   1.0000   1.0000   1.0000   1.0000
     1.0000   1.0000   1.0000   1.0000   1.0000   1.0000   1.0000   1.0000
     1.0000   1.0000   1.0000   1.0000   1.0000   1.0000   1.0000   1.0000
     1.0000   1.0000   1.0000   1.0000   1.0000   1.0000   1.0000   1.0000
     1.0000   1.0000   1.0000   1.0000   1.0000   1.0000   1.0000   1.0000
     1.0000   1.0000   1.0000   1.0000   1.0000   1.0000   1.0000   1.0000
     1.0000   1.0000   1.0000   1.0000   1.0000   1.0000   1.0000   1.0000
     1.0000   1.0000   1.0000   1.0000   1.0000   1.0000   1.0000   1.0000
     1.0000   1.0000   1.0000   1.0000   1.0000   1.0000   1.0000   1.0000
     1.0000   1.0000   1.0000   1.0000   1.0000   1.0000   1.0000   1.0000
     1.0000   1.0000   1.0000   1.0000   0.0000   0.0000   0.0000   0.0000
     0.0000   0.0000   0.0000   0.0000   0.0000   0.0000   0.0000   0.0000
     0.0000   0.0000   0.0000   0.0000   0.0000   0.0000   0.0000   0.0000
     0.0000   0.0000   0.0000   0.0000   0.0000   0.0000   0.0000   0.0000
     0.0000   0.0000   0.0000   0.0000   0.0000   0.0000   0.0000   0.0000
     0.0000   0.0000   0.0000   0.0000   0.0000   0.0000   0.0000   0.0000
     0.0000   0.0000   0.0000   0.0000   0.0000   0.0000   0.0000   0.0000
     0.0000   0.0000   0.0000   0.0000   0.0000   0.0000   0.0000   0.0000
     0.0000   0.0000   0.0000   0.0000   0.0000   0.0000   0.0000   0.0000
     0.0000   0.0000   0.0000   0.0000   0.0000   0.0000   0.0000   0.0000
     0.0000   0.0000   0.0000   0.0000   0.0000   0.0000   0.0000   0.0000

          k = 0.0000 0.8660 0.0000 ( 50878 PWs)   bands (ev):

    -8.5407  -8.5407  -8.4759  -8.4759  -8.4491  -8.4491  -8.1003  -8.1003
    -7.9809  -7.9809  -7.9203  -7.9203  -7.2435  -7.2435  -7.1345  -7.1345
    -7.0861  -7.0861  -4.9370  -4.9370  -4.8323  -4.8323  -4.7690  -4.7690
    -4.1353  -4.1353  -4.0532  -4.0532  -4.0194  -4.0193  -0.5639  -0.5639
    -0.4542  -0.4541  -0.3671  -0.3669   0.1800   0.1801   0.3647   0.3651
     0.4066   0.4074   0.4813   0.4816   0.6089   0.6092   0.8025   0.8029
     0.9798   0.9798   1.0372   1.0382   1.0791   1.0804   1.2933   1.2937
     1.3379   1.3382   1.4197   1.4197   1.6567   1.6568   1.8037   1.8037
     2.0375   2.0375   2.1730   2.1731   2.2993   2.2994   2.4565   2.4567
     2.5856   2.5857   2.7369   2.7370   2.8702   2.8703   3.1416   3.1417
     3.3820   3.3821   3.5771   3.5771   4.2854   4.2854   4.5223   4.5224
     4.7479   4.7479   4.9248   4.9248   5.0860   5.0861   5.2456   5.2457
     5.3134   5.3134   5.5197   5.5198   5.7337   5.7337   5.8668   5.8669
     5.9484   5.9485   6.0260   6.0262   6.3998   6.3998   6.5177   6.5177
     6.6224   6.6224   6.8599   6.8600   7.0651   7.0651   7.2452   7.2452
     7.5087   7.5092   7.5467   7.5467   7.5873   7.5879   8.4197   8.4197
     8.8376   8.8377   8.9528   8.9528   9.2681   9.2682   9.3883   9.3884
     9.6078   9.6079   9.7306   9.7307   9.8294   9.8294  10.1094  10.1094
    10.3004  10.3004  10.4098  10.4099  10.4229  10.4229  10.5271  10.5271
    10.6239  10.6239  10.7444  10.7444  10.9166  10.9168  11.1226  11.1226
    11.1357  11.1357  11.3586  11.3586  11.4309  11.4309  11.5881  11.5881

     occupation numbers 
     1.0000   1.0000   1.0000   1.0000   1.0000   1.0000   1.0000   1.0000
     1.0000   1.0000   1.0000   1.0000   1.0000   1.0000   1.0000   1.0000
     1.0000   1.0000   1.0000   1.0000   1.0000   1.0000   1.0000   1.0000
     1.0000   1.0000   1.0000   1.0000   1.0000   1.0000   1.0000   1.0000
     1.0000   1.0000   1.0000   1.0000   1.0000   1.0000   1.0000   1.0000
     1.0000   1.0000   1.0000   1.0000   1.0000   1.0000   1.0000   1.0000
     1.0000   1.0000   1.0000   1.0000   1.0000   1.0000   1.0000   1.0000
     1.0000   1.0000   1.0000   1.0000   1.0000   1.0000   1.0000   1.0000
     1.0000   1.0000   1.0000   1.0000   1.0000   1.0000   1.0000   1.0000
     1.0000   1.0000   1.0000   1.0000   1.0000   1.0000   1.0000   1.0000
     0.9999   0.9999   0.9620   0.9619   0.0000   0.0000   0.0000   0.0000
     0.0000   0.0000   0.0000   0.0000   0.0000   0.0000   0.0000   0.0000
     0.0000   0.0000   0.0000   0.0000   0.0000   0.0000   0.0000   0.0000
     0.0000   0.0000   0.0000   0.0000   0.0000   0.0000   0.0000   0.0000
     0.0000   0.0000   0.0000   0.0000   0.0000   0.0000   0.0000   0.0000
     0.0000   0.0000   0.0000   0.0000   0.0000   0.0000   0.0000   0.0000
     0.0000   0.0000   0.0000   0.0000   0.0000   0.0000   0.0000   0.0000
     0.0000   0.0000   0.0000   0.0000   0.0000   0.0000   0.0000   0.0000
     0.0000   0.0000   0.0000   0.0000   0.0000   0.0000   0.0000   0.0000
     0.0000   0.0000   0.0000   0.0000   0.0000   0.0000   0.0000   0.0000
     0.0000   0.0000   0.0000   0.0000   0.0000   0.0000   0.0000   0.0000

          k = 0.2500 0.1443 0.0000 ( 50878 PWs)   bands (ev):

    -8.5407  -8.5407  -8.4759  -8.4759  -8.4491  -8.4491  -8.1003  -8.1003
    -7.9809  -7.9809  -7.9203  -7.9203  -7.2435  -7.2435  -7.1345  -7.1345
    -7.0861  -7.0861  -4.9370  -4.9370  -4.8323  -4.8323  -4.7690  -4.7690
    -4.1353  -4.1353  -4.0532  -4.0532  -4.0194  -4.0193  -0.5639  -0.5639
    -0.4542  -0.4541  -0.3671  -0.3669   0.1800   0.1801   0.3647   0.3651
     0.4066   0.4074   0.4813   0.4816   0.6089   0.6092   0.8025   0.8029
     0.9798   0.9798   1.0372   1.0382   1.0791   1.0804   1.2933   1.2937
     1.3379   1.3382   1.4197   1.4197   1.6567   1.6568   1.8037   1.8037
     2.0375   2.0375   2.1730   2.1731   2.2993   2.2994   2.4565   2.4567
     2.5856   2.5857   2.7369   2.7370   2.8702   2.8703   3.1416   3.1417
     3.3820   3.3821   3.5771   3.5771   4.2854   4.2854   4.5223   4.5224
     4.7479   4.7479   4.9248   4.9248   5.0860   5.0861   5.2456   5.2457
     5.3134   5.3134   5.5197   5.5198   5.7337   5.7337   5.8668   5.8669
     5.9484   5.9485   6.0260   6.0262   6.3998   6.3998   6.5177   6.5177
     6.6224   6.6224   6.8599   6.8600   7.0651   7.0651   7.2452   7.2452
     7.5087   7.5092   7.5467   7.5467   7.5873   7.5879   8.4197   8.4197
     8.8376   8.8377   8.9528   8.9528   9.2681   9.2682   9.3883   9.3884
     9.6078   9.6079   9.7306   9.7307   9.8294   9.8294  10.1094  10.1094
    10.3004  10.3004  10.4098  10.4099  10.4229  10.4229  10.5271  10.5271
    10.6239  10.6239  10.7444  10.7444  10.9166  10.9168  11.1226  11.1226
    11.1357  11.1357  11.3586  11.3586  11.4309  11.4309  11.5881  11.5881

     occupation numbers 
     1.0000   1.0000   1.0000   1.0000   1.0000   1.0000   1.0000   1.0000
     1.0000   1.0000   1.0000   1.0000   1.0000   1.0000   1.0000   1.0000
     1.0000   1.0000   1.0000   1.0000   1.0000   1.0000   1.0000   1.0000
     1.0000   1.0000   1.0000   1.0000   1.0000   1.0000   1.0000   1.0000
     1.0000   1.0000   1.0000   1.0000   1.0000   1.0000   1.0000   1.0000
     1.0000   1.0000   1.0000   1.0000   1.0000   1.0000   1.0000   1.0000
     1.0000   1.0000   1.0000   1.0000   1.0000   1.0000   1.0000   1.0000
     1.0000   1.0000   1.0000   1.0000   1.0000   1.0000   1.0000   1.0000
     1.0000   1.0000   1.0000   1.0000   1.0000   1.0000   1.0000   1.0000
     1.0000   1.0000   1.0000   1.0000   1.0000   1.0000   1.0000   1.0000
     0.9999   0.9999   0.9620   0.9619   0.0000   0.0000   0.0000   0.0000
     0.0000   0.0000   0.0000   0.0000   0.0000   0.0000   0.0000   0.0000
     0.0000   0.0000   0.0000   0.0000   0.0000   0.0000   0.0000   0.0000
     0.0000   0.0000   0.0000   0.0000   0.0000   0.0000   0.0000   0.0000
     0.0000   0.0000   0.0000   0.0000   0.0000   0.0000   0.0000   0.0000
     0.0000   0.0000   0.0000   0.0000   0.0000   0.0000   0.0000   0.0000
     0.0000   0.0000   0.0000   0.0000   0.0000   0.0000   0.0000   0.0000
     0.0000   0.0000   0.0000   0.0000   0.0000   0.0000   0.0000   0.0000
     0.0000   0.0000   0.0000   0.0000   0.0000   0.0000   0.0000   0.0000
     0.0000   0.0000   0.0000   0.0000   0.0000   0.0000   0.0000   0.0000
     0.0000   0.0000   0.0000   0.0000   0.0000   0.0000   0.0000   0.0000

          k = 0.2500 0.4330 0.0000 ( 50758 PWs)   bands (ev):

    -7.6220  -7.6220  -7.5633  -7.5632  -7.5408  -7.5408  -7.3538  -7.3538
    -7.2578  -7.2578  -7.2224  -7.2224  -6.9762  -6.9762  -6.9069  -6.9067
    -6.8973  -6.8971  -5.4091  -5.4091  -5.3729  -5.3716  -5.3699  -5.3686
    -5.2641  -5.2641  -5.2239  -5.2229  -5.2219  -5.2208  -1.0072  -1.0072
    -0.9398  -0.9397  -0.8709  -0.8706  -0.8638  -0.8634  -0.7881  -0.7877
    -0.7602  -0.7599  -0.2038  -0.2038  -0.0033  -0.0032   0.0670   0.0671
     0.1034   0.1041   0.1348   0.1356   0.2841   0.2843   0.3081   0.3089
     0.4387   0.4390   0.5544   0.5545   0.9555   0.9557   1.2037   1.2037
     1.3909   1.3910   1.9398   1.9398   2.1324   2.1325   2.2983   2.2985
     2.5216   2.5217   2.6612   2.6616   2.7714   2.7724   2.9345   2.9356
     3.0572   3.0575   3.1587   3.1589   4.8843   4.8843   4.9367   4.9368
     4.9524   4.9524   5.1098   5.1102   5.2179   5.2184   5.3918   5.3919
     5.6424   5.6427   5.7643   5.7643   5.8330   5.8331   6.6395   6.6395
     6.8138   6.8138   6.9432   6.9433   7.0783   7.0784   7.1128   7.1129
     7.3796   7.3798   7.4002   7.4004   7.6175   7.6177   7.6970   7.6971
     8.3797   8.3797   8.4556   8.4559   8.6016   8.6034   8.6279   8.6287
     8.6445   8.6454   8.6836   8.6837   9.0654   9.0656   9.2251   9.2251
     9.5780   9.5781   9.7428   9.7429   9.9431   9.9432  10.3156  10.3157
    10.3333  10.3335  10.3865  10.3867  11.0976  11.0978  11.2369  11.2370
    11.3099  11.3099  11.6733  11.6734  11.7228  11.7229  11.7564  11.7565
    11.8346  11.8347  12.0407  12.0410  12.2309  12.2312  12.5144  12.5144

     occupation numbers 
     1.0000   1.0000   1.0000   1.0000   1.0000   1.0000   1.0000   1.0000
     1.0000   1.0000   1.0000   1.0000   1.0000   1.0000   1.0000   1.0000
     1.0000   1.0000   1.0000   1.0000   1.0000   1.0000   1.0000   1.0000
     1.0000   1.0000   1.0000   1.0000   1.0000   1.0000   1.0000   1.0000
     1.0000   1.0000   1.0000   1.0000   1.0000   1.0000   1.0000   1.0000
     1.0000   1.0000   1.0000   1.0000   1.0000   1.0000   1.0000   1.0000
     1.0000   1.0000   1.0000   1.0000   1.0000   1.0000   1.0000   1.0000
     1.0000   1.0000   1.0000   1.0000   1.0000   1.0000   1.0000   1.0000
     1.0000   1.0000   1.0000   1.0000   1.0000   1.0000   1.0000   1.0000
     1.0000   1.0000   1.0000   1.0000   1.0000   1.0000   1.0000   1.0000
     1.0000   1.0000   1.0000   1.0000   0.0000   0.0000   0.0000   0.0000
     0.0000   0.0000   0.0000   0.0000   0.0000   0.0000   0.0000   0.0000
     0.0000   0.0000   0.0000   0.0000   0.0000   0.0000   0.0000   0.0000
     0.0000   0.0000   0.0000   0.0000   0.0000   0.0000   0.0000   0.0000
     0.0000   0.0000   0.0000   0.0000   0.0000   0.0000   0.0000   0.0000
     0.0000   0.0000   0.0000   0.0000   0.0000   0.0000   0.0000   0.0000
     0.0000   0.0000   0.0000   0.0000   0.0000   0.0000   0.0000   0.0000
     0.0000   0.0000   0.0000   0.0000   0.0000   0.0000   0.0000   0.0000
     0.0000   0.0000   0.0000   0.0000   0.0000   0.0000   0.0000   0.0000
     0.0000   0.0000   0.0000   0.0000   0.0000   0.0000   0.0000   0.0000
     0.0000   0.0000   0.0000   0.0000   0.0000   0.0000   0.0000   0.0000

          k = 0.2500 0.7217 0.0000 ( 50758 PWs)   bands (ev):

    -7.6220  -7.6220  -7.5633  -7.5632  -7.5408  -7.5408  -7.3538  -7.3538
    -7.2578  -7.2578  -7.2224  -7.2224  -6.9762  -6.9762  -6.9069  -6.9067
    -6.8973  -6.8971  -5.4091  -5.4091  -5.3729  -5.3716  -5.3699  -5.3686
    -5.2641  -5.2641  -5.2239  -5.2229  -5.2219  -5.2208  -1.0072  -1.0072
    -0.9398  -0.9397  -0.8709  -0.8706  -0.8638  -0.8634  -0.7881  -0.7877
    -0.7602  -0.7599  -0.2038  -0.2038  -0.0033  -0.0032   0.0670   0.0671
     0.1034   0.1041   0.1348   0.1356   0.2841   0.2843   0.3081   0.3089
     0.4387   0.4390   0.5544   0.5545   0.9555   0.9557   1.2037   1.2037
     1.3909   1.3910   1.9398   1.9398   2.1324   2.1325   2.2983   2.2985
     2.5216   2.5217   2.6612   2.6616   2.7714   2.7724   2.9345   2.9356
     3.0572   3.0575   3.1587   3.1589   4.8843   4.8843   4.9367   4.9368
     4.9524   4.9524   5.1098   5.1102   5.2178   5.2184   5.3918   5.3919
     5.6424   5.6427   5.7643   5.7643   5.8330   5.8331   6.6395   6.6395
     6.8138   6.8138   6.9432   6.9433   7.0783   7.0784   7.1128   7.1129
     7.3796   7.3798   7.4002   7.4004   7.6175   7.6177   7.6970   7.6971
     8.3797   8.3797   8.4556   8.4559   8.6016   8.6034   8.6279   8.6287
     8.6445   8.6454   8.6836   8.6837   9.0654   9.0656   9.2251   9.2251
     9.5780   9.5781   9.7428   9.7429   9.9431   9.9432  10.3156  10.3157
    10.3333  10.3335  10.3865  10.3867  11.0976  11.0978  11.2369  11.2370
    11.3099  11.3099  11.6733  11.6734  11.7228  11.7229  11.7564  11.7565
    11.8346  11.8347  12.0407  12.0410  12.2309  12.2312  12.5144  12.5144

     occupation numbers 
     1.0000   1.0000   1.0000   1.0000   1.0000   1.0000   1.0000   1.0000
     1.0000   1.0000   1.0000   1.0000   1.0000   1.0000   1.0000   1.0000
     1.0000   1.0000   1.0000   1.0000   1.0000   1.0000   1.0000   1.0000
     1.0000   1.0000   1.0000   1.0000   1.0000   1.0000   1.0000   1.0000
     1.0000   1.0000   1.0000   1.0000   1.0000   1.0000   1.0000   1.0000
     1.0000   1.0000   1.0000   1.0000   1.0000   1.0000   1.0000   1.0000
     1.0000   1.0000   1.0000   1.0000   1.0000   1.0000   1.0000   1.0000
     1.0000   1.0000   1.0000   1.0000   1.0000   1.0000   1.0000   1.0000
     1.0000   1.0000   1.0000   1.0000   1.0000   1.0000   1.0000   1.0000
     1.0000   1.0000   1.0000   1.0000   1.0000   1.0000   1.0000   1.0000
     1.0000   1.0000   1.0000   1.0000   0.0000   0.0000   0.0000   0.0000
     0.0000   0.0000   0.0000   0.0000   0.0000   0.0000   0.0000   0.0000
     0.0000   0.0000   0.0000   0.0000   0.0000   0.0000   0.0000   0.0000
     0.0000   0.0000   0.0000   0.0000   0.0000   0.0000   0.0000   0.0000
     0.0000   0.0000   0.0000   0.0000   0.0000   0.0000   0.0000   0.0000
     0.0000   0.0000   0.0000   0.0000   0.0000   0.0000   0.0000   0.0000
     0.0000   0.0000   0.0000   0.0000   0.0000   0.0000   0.0000   0.0000
     0.0000   0.0000   0.0000   0.0000   0.0000   0.0000   0.0000   0.0000
     0.0000   0.0000   0.0000   0.0000   0.0000   0.0000   0.0000   0.0000
     0.0000   0.0000   0.0000   0.0000   0.0000   0.0000   0.0000   0.0000
     0.0000   0.0000   0.0000   0.0000   0.0000   0.0000   0.0000   0.0000

          k = 0.2500 1.0104 0.0000 ( 50878 PWs)   bands (ev):

    -8.5407  -8.5407  -8.4759  -8.4759  -8.4491  -8.4491  -8.1003  -8.1003
    -7.9809  -7.9809  -7.9203  -7.9203  -7.2435  -7.2435  -7.1345  -7.1345
    -7.0861  -7.0861  -4.9370  -4.9370  -4.8323  -4.8323  -4.7690  -4.7690
    -4.1353  -4.1353  -4.0532  -4.0532  -4.0194  -4.0193  -0.5639  -0.5639
    -0.4542  -0.4541  -0.3671  -0.3669   0.1800   0.1801   0.3647   0.3651
     0.4066   0.4074   0.4813   0.4816   0.6089   0.6092   0.8025   0.8029
     0.9798   0.9798   1.0372   1.0382   1.0791   1.0804   1.2933   1.2937
     1.3379   1.3382   1.4197   1.4197   1.6567   1.6568   1.8037   1.8037
     2.0375   2.0375   2.1730   2.1731   2.2993   2.2994   2.4565   2.4567
     2.5856   2.5857   2.7369   2.7370   2.8702   2.8703   3.1416   3.1417
     3.3820   3.3821   3.5771   3.5771   4.2854   4.2854   4.5223   4.5224
     4.7479   4.7479   4.9248   4.9248   5.0860   5.0861   5.2456   5.2457
     5.3134   5.3134   5.5197   5.5198   5.7337   5.7337   5.8668   5.8669
     5.9484   5.9485   6.0260   6.0262   6.3998   6.3998   6.5177   6.5177
     6.6224   6.6224   6.8599   6.8600   7.0651   7.0651   7.2452   7.2452
     7.5087   7.5092   7.5467   7.5467   7.5873   7.5879   8.4197   8.4197
     8.8376   8.8377   8.9528   8.9528   9.2681   9.2682   9.3883   9.3884
     9.6078   9.6079   9.7306   9.7307   9.8294   9.8294  10.1094  10.1094
    10.3004  10.3004  10.4098  10.4099  10.4229  10.4229  10.5271  10.5271
    10.6239  10.6239  10.7444  10.7444  10.9166  10.9168  11.1226  11.1226
    11.1357  11.1357  11.3586  11.3586  11.4309  11.4309  11.5881  11.5881

     occupation numbers 
     1.0000   1.0000   1.0000   1.0000   1.0000   1.0000   1.0000   1.0000
     1.0000   1.0000   1.0000   1.0000   1.0000   1.0000   1.0000   1.0000
     1.0000   1.0000   1.0000   1.0000   1.0000   1.0000   1.0000   1.0000
     1.0000   1.0000   1.0000   1.0000   1.0000   1.0000   1.0000   1.0000
     1.0000   1.0000   1.0000   1.0000   1.0000   1.0000   1.0000   1.0000
     1.0000   1.0000   1.0000   1.0000   1.0000   1.0000   1.0000   1.0000
     1.0000   1.0000   1.0000   1.0000   1.0000   1.0000   1.0000   1.0000
     1.0000   1.0000   1.0000   1.0000   1.0000   1.0000   1.0000   1.0000
     1.0000   1.0000   1.0000   1.0000   1.0000   1.0000   1.0000   1.0000
     1.0000   1.0000   1.0000   1.0000   1.0000   1.0000   1.0000   1.0000
     0.9999   0.9999   0.9620   0.9619   0.0000   0.0000   0.0000   0.0000
     0.0000   0.0000   0.0000   0.0000   0.0000   0.0000   0.0000   0.0000
     0.0000   0.0000   0.0000   0.0000   0.0000   0.0000   0.0000   0.0000
     0.0000   0.0000   0.0000   0.0000   0.0000   0.0000   0.0000   0.0000
     0.0000   0.0000   0.0000   0.0000   0.0000   0.0000   0.0000   0.0000
     0.0000   0.0000   0.0000   0.0000   0.0000   0.0000   0.0000   0.0000
     0.0000   0.0000   0.0000   0.0000   0.0000   0.0000   0.0000   0.0000
     0.0000   0.0000   0.0000   0.0000   0.0000   0.0000   0.0000   0.0000
     0.0000   0.0000   0.0000   0.0000   0.0000   0.0000   0.0000   0.0000
     0.0000   0.0000   0.0000   0.0000   0.0000   0.0000   0.0000   0.0000
     0.0000   0.0000   0.0000   0.0000   0.0000   0.0000   0.0000   0.0000

          k = 0.5000 0.2887 0.0000 ( 50824 PWs)   bands (ev):

    -7.3680  -7.3680  -7.3527  -7.3527  -7.2926  -7.2926  -7.2593  -7.2593
    -7.2570  -7.2570  -7.2524  -7.2524  -7.2371  -7.2371  -7.1858  -7.1858
    -7.1840  -7.1840  -5.6653  -5.6653  -5.6085  -5.6085  -5.5875  -5.5875
    -5.0927  -5.0927  -5.0351  -5.0351  -5.0181  -5.0181  -1.5411  -1.5411
    -1.4355  -1.4355  -1.3692  -1.3692  -0.3539  -0.3539  -0.2025  -0.2025
    -0.0962  -0.0962  -0.0698  -0.0698   0.0313   0.0313   0.0986   0.0986
     0.4158   0.4158   0.4933   0.4933   0.5406   0.5406   0.6774   0.6774
     0.8711   0.8711   0.9809   0.9809   1.1285   1.1285   1.3669   1.3669
     1.6536   1.6536   1.6578   1.6578   1.8556   1.8556   1.8875   1.8875
     2.4921   2.4921   2.5675   2.5675   2.5734   2.5734   2.7120   2.7120
     2.8298   2.8298   3.1126   3.1126   4.2941   4.2941   4.5388   4.5388
     4.7079   4.7079   4.8727   4.8727   4.9927   4.9927   5.2203   5.2203
     5.3195   5.3195   5.4391   5.4391   5.8200   5.8200   6.1955   6.1955
     6.2923   6.2923   6.3561   6.3561   6.7718   6.7718   6.8169   6.8169
     6.8715   6.8715   6.9250   6.9250   7.0881   7.0881   7.1410   7.1410
     7.3337   7.3337   7.7562   7.7562   8.2114   8.2114   8.6558   8.6558
     8.7421   8.7421   8.9130   8.9130   9.9768   9.9768  10.2575  10.2575
    10.4312  10.4312  10.5237  10.5237  10.8010  10.8010  11.2138  11.2138
    11.6712  11.6712  11.9244  11.9244  12.1344  12.1344  12.2005  12.2005
    12.2529  12.2529  12.2784  12.2784  12.4476  12.4476  12.5868  12.5868
    12.6503  12.6503  12.9820  12.9820  12.9920  12.9920  13.0551  13.0551

     occupation numbers 
     1.0000   1.0000   1.0000   1.0000   1.0000   1.0000   1.0000   1.0000
     1.0000   1.0000   1.0000   1.0000   1.0000   1.0000   1.0000   1.0000
     1.0000   1.0000   1.0000   1.0000   1.0000   1.0000   1.0000   1.0000
     1.0000   1.0000   1.0000   1.0000   1.0000   1.0000   1.0000   1.0000
     1.0000   1.0000   1.0000   1.0000   1.0000   1.0000   1.0000   1.0000
     1.0000   1.0000   1.0000   1.0000   1.0000   1.0000   1.0000   1.0000
     1.0000   1.0000   1.0000   1.0000   1.0000   1.0000   1.0000   1.0000
     1.0000   1.0000   1.0000   1.0000   1.0000   1.0000   1.0000   1.0000
     1.0000   1.0000   1.0000   1.0000   1.0000   1.0000   1.0000   1.0000
     1.0000   1.0000   1.0000   1.0000   1.0000   1.0000   1.0000   1.0000
     1.0000   1.0000   1.0000   1.0000   0.0000   0.0000   0.0000   0.0000
     0.0000   0.0000   0.0000   0.0000   0.0000   0.0000   0.0000   0.0000
     0.0000   0.0000   0.0000   0.0000   0.0000   0.0000   0.0000   0.0000
     0.0000   0.0000   0.0000   0.0000   0.0000   0.0000   0.0000   0.0000
     0.0000   0.0000   0.0000   0.0000   0.0000   0.0000   0.0000   0.0000
     0.0000   0.0000   0.0000   0.0000   0.0000   0.0000   0.0000   0.0000
     0.0000   0.0000   0.0000   0.0000   0.0000   0.0000   0.0000   0.0000
     0.0000   0.0000   0.0000   0.0000   0.0000   0.0000   0.0000   0.0000
     0.0000   0.0000   0.0000   0.0000   0.0000   0.0000   0.0000   0.0000
     0.0000   0.0000   0.0000   0.0000   0.0000   0.0000   0.0000   0.0000
     0.0000   0.0000   0.0000   0.0000   0.0000   0.0000   0.0000   0.0000

          k = 0.5000 0.5774 0.0000 ( 50758 PWs)   bands (ev):

    -7.6220  -7.6220  -7.5633  -7.5632  -7.5408  -7.5408  -7.3538  -7.3538
    -7.2578  -7.2578  -7.2224  -7.2224  -6.9762  -6.9762  -6.9069  -6.9067
    -6.8973  -6.8971  -5.4091  -5.4091  -5.3729  -5.3716  -5.3699  -5.3686
    -5.2641  -5.2641  -5.2239  -5.2229  -5.2219  -5.2208  -1.0072  -1.0072
    -0.9398  -0.9397  -0.8709  -0.8706  -0.8638  -0.8634  -0.7881  -0.7877
    -0.7602  -0.7599  -0.2038  -0.2038  -0.0033  -0.0032   0.0670   0.0671
     0.1034   0.1041   0.1348   0.1356   0.2841   0.2843   0.3081   0.3089
     0.4387   0.4390   0.5544   0.5545   0.9555   0.9557   1.2037   1.2037
     1.3909   1.3910   1.9398   1.9398   2.1324   2.1325   2.2983   2.2985
     2.5216   2.5217   2.6612   2.6616   2.7714   2.7724   2.9345   2.9356
     3.0572   3.0575   3.1587   3.1589   4.8843   4.8843   4.9367   4.9368
     4.9524   4.9524   5.1098   5.1102   5.2179   5.2184   5.3918   5.3919
     5.6424   5.6427   5.7643   5.7643   5.8330   5.8331   6.6395   6.6395
     6.8138   6.8138   6.9432   6.9433   7.0783   7.0784   7.1128   7.1129
     7.3796   7.3798   7.4002   7.4004   7.6175   7.6177   7.6970   7.6971
     8.3797   8.3797   8.4556   8.4559   8.6016   8.6034   8.6279   8.6287
     8.6445   8.6454   8.6836   8.6837   9.0654   9.0656   9.2251   9.2251
     9.5780   9.5781   9.7428   9.7429   9.9431   9.9432  10.3156  10.3157
    10.3333  10.3335  10.3865  10.3867  11.0976  11.0978  11.2369  11.2370
    11.3099  11.3099  11.6733  11.6734  11.7228  11.7229  11.7564  11.7565
    11.8346  11.8347  12.0407  12.0410  12.2309  12.2312  12.5144  12.5144

     occupation numbers 
     1.0000   1.0000   1.0000   1.0000   1.0000   1.0000   1.0000   1.0000
     1.0000   1.0000   1.0000   1.0000   1.0000   1.0000   1.0000   1.0000
     1.0000   1.0000   1.0000   1.0000   1.0000   1.0000   1.0000   1.0000
     1.0000   1.0000   1.0000   1.0000   1.0000   1.0000   1.0000   1.0000
     1.0000   1.0000   1.0000   1.0000   1.0000   1.0000   1.0000   1.0000
     1.0000   1.0000   1.0000   1.0000   1.0000   1.0000   1.0000   1.0000
     1.0000   1.0000   1.0000   1.0000   1.0000   1.0000   1.0000   1.0000
     1.0000   1.0000   1.0000   1.0000   1.0000   1.0000   1.0000   1.0000
     1.0000   1.0000   1.0000   1.0000   1.0000   1.0000   1.0000   1.0000
     1.0000   1.0000   1.0000   1.0000   1.0000   1.0000   1.0000   1.0000
     1.0000   1.0000   1.0000   1.0000   0.0000   0.0000   0.0000   0.0000
     0.0000   0.0000   0.0000   0.0000   0.0000   0.0000   0.0000   0.0000
     0.0000   0.0000   0.0000   0.0000   0.0000   0.0000   0.0000   0.0000
     0.0000   0.0000   0.0000   0.0000   0.0000   0.0000   0.0000   0.0000
     0.0000   0.0000   0.0000   0.0000   0.0000   0.0000   0.0000   0.0000
     0.0000   0.0000   0.0000   0.0000   0.0000   0.0000   0.0000   0.0000
     0.0000   0.0000   0.0000   0.0000   0.0000   0.0000   0.0000   0.0000
     0.0000   0.0000   0.0000   0.0000   0.0000   0.0000   0.0000   0.0000
     0.0000   0.0000   0.0000   0.0000   0.0000   0.0000   0.0000   0.0000
     0.0000   0.0000   0.0000   0.0000   0.0000   0.0000   0.0000   0.0000
     0.0000   0.0000   0.0000   0.0000   0.0000   0.0000   0.0000   0.0000

          k = 0.5000 0.8660 0.0000 ( 50824 PWs)   bands (ev):

    -7.3680  -7.3680  -7.3527  -7.3527  -7.2926  -7.2926  -7.2593  -7.2593
    -7.2570  -7.2570  -7.2524  -7.2524  -7.2371  -7.2371  -7.1858  -7.1858
    -7.1840  -7.1840  -5.6653  -5.6653  -5.6086  -5.6086  -5.5875  -5.5875
    -5.0927  -5.0927  -5.0351  -5.0351  -5.0181  -5.0181  -1.5411  -1.5411
    -1.4355  -1.4355  -1.3692  -1.3692  -0.3539  -0.3539  -0.2025  -0.2025
    -0.0962  -0.0962  -0.0698  -0.0698   0.0313   0.0313   0.0986   0.0986
     0.4158   0.4158   0.4933   0.4933   0.5406   0.5406   0.6774   0.6774
     0.8711   0.8711   0.9809   0.9809   1.1285   1.1285   1.3669   1.3669
     1.6536   1.6536   1.6578   1.6578   1.8556   1.8556   1.8875   1.8875
     2.4921   2.4921   2.5675   2.5675   2.5734   2.5734   2.7120   2.7120
     2.8298   2.8298   3.1126   3.1126   4.2941   4.2941   4.5388   4.5388
     4.7079   4.7079   4.8727   4.8727   4.9927   4.9927   5.2203   5.2203
     5.3195   5.3195   5.4391   5.4391   5.8200   5.8200   6.1955   6.1955
     6.2923   6.2923   6.3561   6.3561   6.7718   6.7718   6.8169   6.8169
     6.8715   6.8715   6.9250   6.9250   7.0881   7.0881   7.1410   7.1410
     7.3337   7.3337   7.7562   7.7562   8.2114   8.2114   8.6558   8.6558
     8.7421   8.7421   8.9130   8.9130   9.9768   9.9768  10.2575  10.2575
    10.4312  10.4312  10.5237  10.5237  10.8010  10.8010  11.2138  11.2138
    11.6712  11.6712  11.9244  11.9244  12.1344  12.1344  12.2005  12.2005
    12.2529  12.2529  12.2784  12.2784  12.4476  12.4476  12.5868  12.5868
    12.6503  12.6503  12.9820  12.9820  12.9920  12.9920  13.0551  13.0551

     occupation numbers 
     1.0000   1.0000   1.0000   1.0000   1.0000   1.0000   1.0000   1.0000
     1.0000   1.0000   1.0000   1.0000   1.0000   1.0000   1.0000   1.0000
     1.0000   1.0000   1.0000   1.0000   1.0000   1.0000   1.0000   1.0000
     1.0000   1.0000   1.0000   1.0000   1.0000   1.0000   1.0000   1.0000
     1.0000   1.0000   1.0000   1.0000   1.0000   1.0000   1.0000   1.0000
     1.0000   1.0000   1.0000   1.0000   1.0000   1.0000   1.0000   1.0000
     1.0000   1.0000   1.0000   1.0000   1.0000   1.0000   1.0000   1.0000
     1.0000   1.0000   1.0000   1.0000   1.0000   1.0000   1.0000   1.0000
     1.0000   1.0000   1.0000   1.0000   1.0000   1.0000   1.0000   1.0000
     1.0000   1.0000   1.0000   1.0000   1.0000   1.0000   1.0000   1.0000
     1.0000   1.0000   1.0000   1.0000   0.0000   0.0000   0.0000   0.0000
     0.0000   0.0000   0.0000   0.0000   0.0000   0.0000   0.0000   0.0000
     0.0000   0.0000   0.0000   0.0000   0.0000   0.0000   0.0000   0.0000
     0.0000   0.0000   0.0000   0.0000   0.0000   0.0000   0.0000   0.0000
     0.0000   0.0000   0.0000   0.0000   0.0000   0.0000   0.0000   0.0000
     0.0000   0.0000   0.0000   0.0000   0.0000   0.0000   0.0000   0.0000
     0.0000   0.0000   0.0000   0.0000   0.0000   0.0000   0.0000   0.0000
     0.0000   0.0000   0.0000   0.0000   0.0000   0.0000   0.0000   0.0000
     0.0000   0.0000   0.0000   0.0000   0.0000   0.0000   0.0000   0.0000
     0.0000   0.0000   0.0000   0.0000   0.0000   0.0000   0.0000   0.0000
     0.0000   0.0000   0.0000   0.0000   0.0000   0.0000   0.0000   0.0000

          k = 0.5000 1.1547 0.0000 ( 50758 PWs)   bands (ev):

    -7.6220  -7.6220  -7.5633  -7.5632  -7.5408  -7.5408  -7.3538  -7.3538
    -7.2578  -7.2578  -7.2224  -7.2224  -6.9762  -6.9762  -6.9069  -6.9067
    -6.8973  -6.8971  -5.4091  -5.4091  -5.3729  -5.3716  -5.3699  -5.3686
    -5.2641  -5.2641  -5.2239  -5.2229  -5.2219  -5.2208  -1.0072  -1.0072
    -0.9398  -0.9397  -0.8709  -0.8706  -0.8638  -0.8634  -0.7881  -0.7877
    -0.7602  -0.7599  -0.2038  -0.2038  -0.0033  -0.0032   0.0670   0.0671
     0.1034   0.1041   0.1348   0.1356   0.2841   0.2843   0.3081   0.3089
     0.4387   0.4390   0.5544   0.5545   0.9555   0.9557   1.2037   1.2037
     1.3909   1.3910   1.9398   1.9398   2.1324   2.1325   2.2983   2.2985
     2.5216   2.5217   2.6612   2.6616   2.7714   2.7724   2.9345   2.9356
     3.0572   3.0575   3.1587   3.1589   4.8843   4.8843   4.9367   4.9368
     4.9524   4.9524   5.1098   5.1102   5.2179   5.2184   5.3918   5.3919
     5.6424   5.6427   5.7643   5.7643   5.8330   5.8331   6.6395   6.6395
     6.8138   6.8138   6.9432   6.9433   7.0783   7.0784   7.1128   7.1129
     7.3796   7.3798   7.4002   7.4004   7.6175   7.6177   7.6970   7.6971
     8.3797   8.3797   8.4556   8.4559   8.6016   8.6034   8.6279   8.6287
     8.6445   8.6454   8.6836   8.6837   9.0654   9.0656   9.2251   9.2251
     9.5780   9.5781   9.7428   9.7429   9.9431   9.9432  10.3156  10.3157
    10.3333  10.3335  10.3865  10.3867  11.0976  11.0978  11.2369  11.2370
    11.3099  11.3099  11.6733  11.6734  11.7228  11.7229  11.7564  11.7565
    11.8346  11.8347  12.0407  12.0410  12.2309  12.2312  12.5144  12.5144

     occupation numbers 
     1.0000   1.0000   1.0000   1.0000   1.0000   1.0000   1.0000   1.0000
     1.0000   1.0000   1.0000   1.0000   1.0000   1.0000   1.0000   1.0000
     1.0000   1.0000   1.0000   1.0000   1.0000   1.0000   1.0000   1.0000
     1.0000   1.0000   1.0000   1.0000   1.0000   1.0000   1.0000   1.0000
     1.0000   1.0000   1.0000   1.0000   1.0000   1.0000   1.0000   1.0000
     1.0000   1.0000   1.0000   1.0000   1.0000   1.0000   1.0000   1.0000
     1.0000   1.0000   1.0000   1.0000   1.0000   1.0000   1.0000   1.0000
     1.0000   1.0000   1.0000   1.0000   1.0000   1.0000   1.0000   1.0000
     1.0000   1.0000   1.0000   1.0000   1.0000   1.0000   1.0000   1.0000
     1.0000   1.0000   1.0000   1.0000   1.0000   1.0000   1.0000   1.0000
     1.0000   1.0000   1.0000   1.0000   0.0000   0.0000   0.0000   0.0000
     0.0000   0.0000   0.0000   0.0000   0.0000   0.0000   0.0000   0.0000
     0.0000   0.0000   0.0000   0.0000   0.0000   0.0000   0.0000   0.0000
     0.0000   0.0000   0.0000   0.0000   0.0000   0.0000   0.0000   0.0000
     0.0000   0.0000   0.0000   0.0000   0.0000   0.0000   0.0000   0.0000
     0.0000   0.0000   0.0000   0.0000   0.0000   0.0000   0.0000   0.0000
     0.0000   0.0000   0.0000   0.0000   0.0000   0.0000   0.0000   0.0000
     0.0000   0.0000   0.0000   0.0000   0.0000   0.0000   0.0000   0.0000
     0.0000   0.0000   0.0000   0.0000   0.0000   0.0000   0.0000   0.0000
     0.0000   0.0000   0.0000   0.0000   0.0000   0.0000   0.0000   0.0000
     0.0000   0.0000   0.0000   0.0000   0.0000   0.0000   0.0000   0.0000

          k = 0.7500 0.4330 0.0000 ( 50878 PWs)   bands (ev):

    -8.5407  -8.5407  -8.4759  -8.4759  -8.4491  -8.4491  -8.1003  -8.1003
    -7.9809  -7.9809  -7.9203  -7.9203  -7.2435  -7.2435  -7.1345  -7.1345
    -7.0861  -7.0861  -4.9370  -4.9370  -4.8323  -4.8323  -4.7690  -4.7690
    -4.1353  -4.1353  -4.0532  -4.0532  -4.0194  -4.0193  -0.5639  -0.5639
    -0.4542  -0.4541  -0.3671  -0.3669   0.1800   0.1801   0.3647   0.3651
     0.4066   0.4074   0.4813   0.4816   0.6089   0.6092   0.8025   0.8029
     0.9798   0.9798   1.0372   1.0382   1.0791   1.0804   1.2933   1.2937
     1.3379   1.3382   1.4197   1.4197   1.6567   1.6568   1.8037   1.8037
     2.0375   2.0375   2.1730   2.1731   2.2993   2.2994   2.4565   2.4567
     2.5856   2.5857   2.7369   2.7370   2.8702   2.8703   3.1416   3.1417
     3.3820   3.3821   3.5771   3.5771   4.2854   4.2854   4.5223   4.5224
     4.7479   4.7479   4.9248   4.9248   5.0860   5.0861   5.2456   5.2457
     5.3134   5.3134   5.5197   5.5198   5.7337   5.7337   5.8668   5.8669
     5.9484   5.9485   6.0260   6.0262   6.3998   6.3998   6.5177   6.5177
     6.6224   6.6224   6.8599   6.8600   7.0651   7.0651   7.2452   7.2452
     7.5087   7.5092   7.5467   7.5467   7.5873   7.5879   8.4197   8.4197
     8.8376   8.8377   8.9528   8.9528   9.2681   9.2682   9.3883   9.3884
     9.6078   9.6079   9.7306   9.7307   9.8294   9.8294  10.1094  10.1094
    10.3004  10.3004  10.4098  10.4099  10.4229  10.4229  10.5271  10.5271
    10.6239  10.6239  10.7444  10.7444  10.9166  10.9168  11.1226  11.1226
    11.1357  11.1357  11.3586  11.3586  11.4309  11.4309  11.5881  11.5881

     occupation numbers 
     1.0000   1.0000   1.0000   1.0000   1.0000   1.0000   1.0000   1.0000
     1.0000   1.0000   1.0000   1.0000   1.0000   1.0000   1.0000   1.0000
     1.0000   1.0000   1.0000   1.0000   1.0000   1.0000   1.0000   1.0000
     1.0000   1.0000   1.0000   1.0000   1.0000   1.0000   1.0000   1.0000
     1.0000   1.0000   1.0000   1.0000   1.0000   1.0000   1.0000   1.0000
     1.0000   1.0000   1.0000   1.0000   1.0000   1.0000   1.0000   1.0000
     1.0000   1.0000   1.0000   1.0000   1.0000   1.0000   1.0000   1.0000
     1.0000   1.0000   1.0000   1.0000   1.0000   1.0000   1.0000   1.0000
     1.0000   1.0000   1.0000   1.0000   1.0000   1.0000   1.0000   1.0000
     1.0000   1.0000   1.0000   1.0000   1.0000   1.0000   1.0000   1.0000
     0.9999   0.9999   0.9620   0.9619   0.0000   0.0000   0.0000   0.0000
     0.0000   0.0000   0.0000   0.0000   0.0000   0.0000   0.0000   0.0000
     0.0000   0.0000   0.0000   0.0000   0.0000   0.0000   0.0000   0.0000
     0.0000   0.0000   0.0000   0.0000   0.0000   0.0000   0.0000   0.0000
     0.0000   0.0000   0.0000   0.0000   0.0000   0.0000   0.0000   0.0000
     0.0000   0.0000   0.0000   0.0000   0.0000   0.0000   0.0000   0.0000
     0.0000   0.0000   0.0000   0.0000   0.0000   0.0000   0.0000   0.0000
     0.0000   0.0000   0.0000   0.0000   0.0000   0.0000   0.0000   0.0000
     0.0000   0.0000   0.0000   0.0000   0.0000   0.0000   0.0000   0.0000
     0.0000   0.0000   0.0000   0.0000   0.0000   0.0000   0.0000   0.0000
     0.0000   0.0000   0.0000   0.0000   0.0000   0.0000   0.0000   0.0000

          k = 0.7500 0.7217 0.0000 ( 50878 PWs)   bands (ev):

    -8.5407  -8.5407  -8.4759  -8.4759  -8.4491  -8.4491  -8.1003  -8.1003
    -7.9809  -7.9809  -7.9203  -7.9203  -7.2435  -7.2435  -7.1345  -7.1345
    -7.0861  -7.0861  -4.9370  -4.9370  -4.8323  -4.8323  -4.7690  -4.7690
    -4.1353  -4.1353  -4.0532  -4.0532  -4.0194  -4.0193  -0.5639  -0.5639
    -0.4542  -0.4541  -0.3671  -0.3669   0.1800   0.1801   0.3647   0.3651
     0.4066   0.4074   0.4813   0.4816   0.6089   0.6092   0.8025   0.8029
     0.9798   0.9798   1.0372   1.0382   1.0791   1.0804   1.2933   1.2937
     1.3379   1.3382   1.4197   1.4197   1.6567   1.6568   1.8037   1.8037
     2.0375   2.0375   2.1730   2.1731   2.2993   2.2994   2.4565   2.4567
     2.5856   2.5857   2.7369   2.7370   2.8702   2.8703   3.1416   3.1417
     3.3820   3.3821   3.5771   3.5771   4.2854   4.2854   4.5223   4.5224
     4.7479   4.7479   4.9248   4.9248   5.0860   5.0861   5.2456   5.2457
     5.3134   5.3134   5.5197   5.5198   5.7337   5.7337   5.8668   5.8669
     5.9484   5.9485   6.0260   6.0262   6.3998   6.3998   6.5177   6.5177
     6.6224   6.6224   6.8599   6.8600   7.0651   7.0651   7.2452   7.2452
     7.5087   7.5092   7.5467   7.5467   7.5873   7.5879   8.4197   8.4197
     8.8376   8.8377   8.9528   8.9528   9.2681   9.2682   9.3883   9.3884
     9.6078   9.6079   9.7306   9.7307   9.8294   9.8294  10.1094  10.1094
    10.3004  10.3004  10.4098  10.4099  10.4229  10.4229  10.5271  10.5271
    10.6239  10.6239  10.7444  10.7444  10.9166  10.9168  11.1226  11.1226
    11.1357  11.1357  11.3586  11.3586  11.4309  11.4309  11.5881  11.5881

     occupation numbers 
     1.0000   1.0000   1.0000   1.0000   1.0000   1.0000   1.0000   1.0000
     1.0000   1.0000   1.0000   1.0000   1.0000   1.0000   1.0000   1.0000
     1.0000   1.0000   1.0000   1.0000   1.0000   1.0000   1.0000   1.0000
     1.0000   1.0000   1.0000   1.0000   1.0000   1.0000   1.0000   1.0000
     1.0000   1.0000   1.0000   1.0000   1.0000   1.0000   1.0000   1.0000
     1.0000   1.0000   1.0000   1.0000   1.0000   1.0000   1.0000   1.0000
     1.0000   1.0000   1.0000   1.0000   1.0000   1.0000   1.0000   1.0000
     1.0000   1.0000   1.0000   1.0000   1.0000   1.0000   1.0000   1.0000
     1.0000   1.0000   1.0000   1.0000   1.0000   1.0000   1.0000   1.0000
     1.0000   1.0000   1.0000   1.0000   1.0000   1.0000   1.0000   1.0000
     0.9999   0.9999   0.9620   0.9619   0.0000   0.0000   0.0000   0.0000
     0.0000   0.0000   0.0000   0.0000   0.0000   0.0000   0.0000   0.0000
     0.0000   0.0000   0.0000   0.0000   0.0000   0.0000   0.0000   0.0000
     0.0000   0.0000   0.0000   0.0000   0.0000   0.0000   0.0000   0.0000
     0.0000   0.0000   0.0000   0.0000   0.0000   0.0000   0.0000   0.0000
     0.0000   0.0000   0.0000   0.0000   0.0000   0.0000   0.0000   0.0000
     0.0000   0.0000   0.0000   0.0000   0.0000   0.0000   0.0000   0.0000
     0.0000   0.0000   0.0000   0.0000   0.0000   0.0000   0.0000   0.0000
     0.0000   0.0000   0.0000   0.0000   0.0000   0.0000   0.0000   0.0000
     0.0000   0.0000   0.0000   0.0000   0.0000   0.0000   0.0000   0.0000
     0.0000   0.0000   0.0000   0.0000   0.0000   0.0000   0.0000   0.0000

          k = 0.7500 1.0104 0.0000 ( 50758 PWs)   bands (ev):

    -7.6220  -7.6220  -7.5633  -7.5632  -7.5408  -7.5408  -7.3538  -7.3538
    -7.2578  -7.2578  -7.2224  -7.2224  -6.9762  -6.9762  -6.9069  -6.9067
    -6.8973  -6.8971  -5.4091  -5.4091  -5.3729  -5.3716  -5.3699  -5.3686
    -5.2641  -5.2641  -5.2239  -5.2229  -5.2219  -5.2208  -1.0072  -1.0072
    -0.9398  -0.9397  -0.8709  -0.8706  -0.8638  -0.8634  -0.7881  -0.7877
    -0.7602  -0.7599  -0.2038  -0.2038  -0.0033  -0.0032   0.0670   0.0671
     0.1034   0.1041   0.1348   0.1356   0.2841   0.2843   0.3081   0.3089
     0.4387   0.4390   0.5544   0.5545   0.9555   0.9557   1.2037   1.2037
     1.3909   1.3910   1.9398   1.9398   2.1324   2.1325   2.2983   2.2985
     2.5216   2.5217   2.6612   2.6616   2.7714   2.7724   2.9345   2.9356
     3.0572   3.0575   3.1587   3.1589   4.8843   4.8843   4.9367   4.9368
     4.9524   4.9524   5.1098   5.1102   5.2178   5.2184   5.3918   5.3919
     5.6424   5.6427   5.7643   5.7643   5.8330   5.8331   6.6395   6.6395
     6.8138   6.8138   6.9432   6.9433   7.0783   7.0784   7.1128   7.1129
     7.3796   7.3798   7.4002   7.4004   7.6175   7.6177   7.6970   7.6971
     8.3797   8.3797   8.4556   8.4559   8.6016   8.6034   8.6279   8.6287
     8.6445   8.6454   8.6836   8.6837   9.0654   9.0656   9.2251   9.2251
     9.5780   9.5781   9.7428   9.7429   9.9431   9.9432  10.3156  10.3157
    10.3333  10.3335  10.3865  10.3867  11.0976  11.0978  11.2369  11.2370
    11.3099  11.3099  11.6733  11.6734  11.7228  11.7229  11.7564  11.7565
    11.8346  11.8347  12.0407  12.0410  12.2309  12.2312  12.5144  12.5144

     occupation numbers 
     1.0000   1.0000   1.0000   1.0000   1.0000   1.0000   1.0000   1.0000
     1.0000   1.0000   1.0000   1.0000   1.0000   1.0000   1.0000   1.0000
     1.0000   1.0000   1.0000   1.0000   1.0000   1.0000   1.0000   1.0000
     1.0000   1.0000   1.0000   1.0000   1.0000   1.0000   1.0000   1.0000
     1.0000   1.0000   1.0000   1.0000   1.0000   1.0000   1.0000   1.0000
     1.0000   1.0000   1.0000   1.0000   1.0000   1.0000   1.0000   1.0000
     1.0000   1.0000   1.0000   1.0000   1.0000   1.0000   1.0000   1.0000
     1.0000   1.0000   1.0000   1.0000   1.0000   1.0000   1.0000   1.0000
     1.0000   1.0000   1.0000   1.0000   1.0000   1.0000   1.0000   1.0000
     1.0000   1.0000   1.0000   1.0000   1.0000   1.0000   1.0000   1.0000
     1.0000   1.0000   1.0000   1.0000   0.0000   0.0000   0.0000   0.0000
     0.0000   0.0000   0.0000   0.0000   0.0000   0.0000   0.0000   0.0000
     0.0000   0.0000   0.0000   0.0000   0.0000   0.0000   0.0000   0.0000
     0.0000   0.0000   0.0000   0.0000   0.0000   0.0000   0.0000   0.0000
     0.0000   0.0000   0.0000   0.0000   0.0000   0.0000   0.0000   0.0000
     0.0000   0.0000   0.0000   0.0000   0.0000   0.0000   0.0000   0.0000
     0.0000   0.0000   0.0000   0.0000   0.0000   0.0000   0.0000   0.0000
     0.0000   0.0000   0.0000   0.0000   0.0000   0.0000   0.0000   0.0000
     0.0000   0.0000   0.0000   0.0000   0.0000   0.0000   0.0000   0.0000
     0.0000   0.0000   0.0000   0.0000   0.0000   0.0000   0.0000   0.0000
     0.0000   0.0000   0.0000   0.0000   0.0000   0.0000   0.0000   0.0000

          k = 0.7500 1.2990 0.0000 ( 50758 PWs)   bands (ev):

    -7.6220  -7.6220  -7.5633  -7.5632  -7.5408  -7.5408  -7.3538  -7.3538
    -7.2578  -7.2578  -7.2224  -7.2224  -6.9762  -6.9762  -6.9069  -6.9067
    -6.8973  -6.8971  -5.4091  -5.4091  -5.3729  -5.3716  -5.3699  -5.3686
    -5.2641  -5.2641  -5.2239  -5.2229  -5.2219  -5.2208  -1.0072  -1.0072
    -0.9398  -0.9397  -0.8709  -0.8706  -0.8638  -0.8634  -0.7881  -0.7877
    -0.7602  -0.7599  -0.2038  -0.2038  -0.0033  -0.0032   0.0670   0.0671
     0.1034   0.1041   0.1348   0.1356   0.2841   0.2843   0.3081   0.3089
     0.4387   0.4390   0.5544   0.5545   0.9555   0.9557   1.2037   1.2037
     1.3909   1.3910   1.9398   1.9398   2.1324   2.1325   2.2983   2.2985
     2.5216   2.5217   2.6612   2.6616   2.7714   2.7724   2.9345   2.9356
     3.0572   3.0575   3.1587   3.1589   4.8843   4.8843   4.9367   4.9368
     4.9524   4.9524   5.1098   5.1102   5.2179   5.2184   5.3918   5.3919
     5.6424   5.6427   5.7643   5.7643   5.8330   5.8331   6.6395   6.6395
     6.8138   6.8138   6.9432   6.9433   7.0783   7.0784   7.1128   7.1129
     7.3796   7.3798   7.4002   7.4004   7.6175   7.6177   7.6970   7.6971
     8.3797   8.3797   8.4556   8.4559   8.6016   8.6034   8.6279   8.6287
     8.6445   8.6454   8.6836   8.6837   9.0654   9.0656   9.2251   9.2251
     9.5780   9.5781   9.7428   9.7429   9.9431   9.9432  10.3156  10.3157
    10.3333  10.3335  10.3865  10.3867  11.0976  11.0978  11.2369  11.2370
    11.3099  11.3099  11.6733  11.6734  11.7228  11.7229  11.7564  11.7565
    11.8346  11.8347  12.0407  12.0410  12.2309  12.2312  12.5144  12.5144

     occupation numbers 
     1.0000   1.0000   1.0000   1.0000   1.0000   1.0000   1.0000   1.0000
     1.0000   1.0000   1.0000   1.0000   1.0000   1.0000   1.0000   1.0000
     1.0000   1.0000   1.0000   1.0000   1.0000   1.0000   1.0000   1.0000
     1.0000   1.0000   1.0000   1.0000   1.0000   1.0000   1.0000   1.0000
     1.0000   1.0000   1.0000   1.0000   1.0000   1.0000   1.0000   1.0000
     1.0000   1.0000   1.0000   1.0000   1.0000   1.0000   1.0000   1.0000
     1.0000   1.0000   1.0000   1.0000   1.0000   1.0000   1.0000   1.0000
     1.0000   1.0000   1.0000   1.0000   1.0000   1.0000   1.0000   1.0000
     1.0000   1.0000   1.0000   1.0000   1.0000   1.0000   1.0000   1.0000
     1.0000   1.0000   1.0000   1.0000   1.0000   1.0000   1.0000   1.0000
     1.0000   1.0000   1.0000   1.0000   0.0000   0.0000   0.0000   0.0000
     0.0000   0.0000   0.0000   0.0000   0.0000   0.0000   0.0000   0.0000
     0.0000   0.0000   0.0000   0.0000   0.0000   0.0000   0.0000   0.0000
     0.0000   0.0000   0.0000   0.0000   0.0000   0.0000   0.0000   0.0000
     0.0000   0.0000   0.0000   0.0000   0.0000   0.0000   0.0000   0.0000
     0.0000   0.0000   0.0000   0.0000   0.0000   0.0000   0.0000   0.0000
     0.0000   0.0000   0.0000   0.0000   0.0000   0.0000   0.0000   0.0000
     0.0000   0.0000   0.0000   0.0000   0.0000   0.0000   0.0000   0.0000
     0.0000   0.0000   0.0000   0.0000   0.0000   0.0000   0.0000   0.0000
     0.0000   0.0000   0.0000   0.0000   0.0000   0.0000   0.0000   0.0000
     0.0000   0.0000   0.0000   0.0000   0.0000   0.0000   0.0000   0.0000

     the Fermi energy is     3.7478 ev
     (compare with:     3.7475 eV, computed in scf)

     Writing output data file ./tmp/Sb2Te3.save/

     init_run     :     29.96s CPU     14.90s WALL (       1 calls)
     electrons    :  98574.12s CPU  11105.59s WALL (       1 calls)

     Called by init_run:
     wfcinit      :      0.00s CPU      0.00s WALL (       1 calls)
     wfcinit:atom :      0.98s CPU      2.07s WALL (      16 calls)
     wfcinit:wfcr :   2063.17s CPU    434.88s WALL (      16 calls)
     potinit      :      3.18s CPU      1.22s WALL (       1 calls)
     hinit0       :      4.74s CPU      4.75s WALL (       1 calls)

     Called by electrons:
     c_bands      :  98574.11s CPU  11105.14s WALL (       1 calls)
     v_of_rho     :      1.45s CPU      0.75s WALL (       1 calls)
     v_h          :      0.08s CPU      0.04s WALL (       1 calls)
     v_xc         :      1.37s CPU      0.71s WALL (       1 calls)
     newd         :     21.79s CPU      8.66s WALL (       1 calls)

     Called by c_bands:
     init_us_2    :      1.53s CPU      2.44s WALL (      16 calls)
     cegterg      :  96446.89s CPU  10582.13s WALL (      83 calls)

     Called by sum_band:

     Called by *egterg:
     cdiaghg      :    612.47s CPU     73.74s WALL (    1561 calls)
     cegterg:over :   8314.28s CPU    360.02s WALL (    1545 calls)
     cegterg:upda :   4376.62s CPU    194.71s WALL (    1545 calls)
     cegterg:last :   9076.30s CPU    389.76s WALL (     598 calls)
     h_psi        :  69158.84s CPU   9270.82s WALL (    1644 calls)
     s_psi        :   5106.74s CPU    202.10s WALL (    1644 calls)
     g_psi        :    343.41s CPU     70.25s WALL (    1545 calls)

     Called by h_psi:
     h_psi:calbec :   5234.19s CPU    239.55s WALL (    1644 calls)
     vloc_psi     :  58559.10s CPU   8754.39s WALL (    1644 calls)
     add_vuspsi   :   5296.46s CPU    227.36s WALL (    1644 calls)

     General routines
     calbec       :   5233.99s CPU    239.37s WALL (    1644 calls)
     fft          :      1.65s CPU      0.55s WALL (      19 calls)
     ffts         :      0.48s CPU      0.10s WALL (       4 calls)
     fftw         :  49103.15s CPU   7300.72s WALL (  422288 calls)
     interpolate  :      1.59s CPU      0.30s WALL (       4 calls)
     davcio       :      0.04s CPU     87.61s WALL (      32 calls)

     Parallel routines

     PWSCF        :   1d 3h23m CPU      3h 7m WALL


   This run was terminated on:   2: 2:22  14Jun2023            

=------------------------------------------------------------------------------=
   JOB DONE.
=------------------------------------------------------------------------------=
