
     Program PWSCF v.6.7MaX starts on 13Jun2023 at 21:27:43 

     This program is part of the open-source Quantum ESPRESSO suite
     for quantum simulation of materials; please cite
         "P. Giannozzi et al., J. Phys.:Condens. Matter 21 395502 (2009);
         "P. Giannozzi et al., J. Phys.:Condens. Matter 29 465901 (2017);
          URL http://www.quantum-espresso.org", 
     in publications or presentations arising from this work. More details at
     http://www.quantum-espresso.org/quote

     Parallel version (MPI), running on     1 processors

     MPI processes distributed on     1 nodes
     Waiting for input...
     Reading input from standard input

     Current dimensions of program PWSCF are:
     Max number of different atomic species (ntypx) = 10
     Max number of k-points (npk) =  40000
     Max angular momentum in pseudopotentials (lmaxx) =  3
     file Te.rel-pbe-n-rrkjus_psl.1.0.0.UPF: wavefunction(s)  5S renormalized
     file Sb.rel-pbe-n-rrkjus_psl.1.0.0.UPF: wavefunction(s)  5S renormalized

     Subspace diagonalization in iterative solution of the eigenvalue problem:
     a serial algorithm will be used

     Message from routine setup:
     using ibrav=0 with symmetry is DISCOURAGED, use correct ibrav instead

     G-vector sticks info
     --------------------
     sticks:   dense  smooth     PW     G-vecs:    dense   smooth      PW
     Sum        1843    1483    421               567491   406823   58777



     bravais-lattice index     =            0
     lattice parameter (alat)  =       8.1879  a.u.
     unit-cell volume          =    4205.5056 (a.u.)^3
     number of atoms/cell      =           15
     number of atomic types    =            2
     number of electrons       =        84.00
     number of Kohn-Sham states=          100
     kinetic-energy cutoff     =      80.0000  Ry
     charge density cutoff     =     400.0000  Ry
     scf convergence threshold =      1.0E-07
     mixing beta               =       0.0700
     number of iterations used =            8  plain     mixing
     Exchange-correlation= PBE
                           (   1   4   3   4   0   0   0)
     Non magnetic calculation with spin-orbit


     celldm(1)=   8.187881  celldm(2)=   0.000000  celldm(3)=   0.000000
     celldm(4)=   0.000000  celldm(5)=   0.000000  celldm(6)=   0.000000

     crystal axes: (cart. coord. in units of alat)
               a(1) = (   1.000000   0.000000   0.000000 )  
               a(2) = (  -0.500000   0.866026   0.000000 )  
               a(3) = (   0.000000   0.000000   8.846530 )  

     reciprocal axes: (cart. coord. in units 2 pi/alat)
               b(1) = (  1.000000  0.577350 -0.000000 )  
               b(2) = (  0.000000  1.154700  0.000000 )  
               b(3) = (  0.000000 -0.000000  0.113039 )  


     PseudoPot. # 1 for Te read from file:
     /home/yehlab/espresso/pseudo/Te.rel-pbe-n-rrkjus_psl.1.0.0.UPF
     MD5 check sum: 7fd30b6833abd190471e4dcc2367351b
     Pseudo is Ultrasoft + core correction, Zval =  6.0
     Generated using &quot;atomic&quot; code by A. Dal Corso  v.6.3
     Using radial grid of 1245 points, 10 beta functions with: 
                l(1) =   0
                l(2) =   0
                l(3) =   1
                l(4) =   1
                l(5) =   1
                l(6) =   1
                l(7) =   2
                l(8) =   2
                l(9) =   2
               l(10) =   2
     Q(r) pseudized with 0 coefficients 


     PseudoPot. # 2 for Sb read from file:
     /home/yehlab/espresso/pseudo/Sb.rel-pbe-n-rrkjus_psl.1.0.0.UPF
     MD5 check sum: c1afc134568783a62b80e43a202109b2
     Pseudo is Ultrasoft + core correction, Zval =  5.0
     Generated using &quot;atomic&quot; code by A. Dal Corso  v.6.2.2
     Using radial grid of 1243 points, 10 beta functions with: 
                l(1) =   0
                l(2) =   0
                l(3) =   1
                l(4) =   1
                l(5) =   1
                l(6) =   1
                l(7) =   2
                l(8) =   2
                l(9) =   2
               l(10) =   2
     Q(r) pseudized with 0 coefficients 


     atomic species   valence    mass     pseudopotential
        Te             6.00   127.60000     Te( 1.00)
        Sb             5.00   121.76000     Sb( 1.00)

     12 Sym. Ops., with inversion, found ( 6 have fractional translation)


                                    s                        frac. trans.

      isym =  1     identity                                     

 cryst.   s( 1) = (     1          0          0      )
                  (     0          1          0      )
                  (     0          0          1      )

 cart.    s( 1) = (  1.0000000  0.0000000  0.0000000 )
                  (  0.0000000  1.0000000  0.0000000 )
                  (  0.0000000  0.0000000  1.0000000 )


      isym =  2     180 deg rotation - cart. axis [1,0,0]        

 cryst.   s( 2) = (     1          0          0      )    f =( -0.3333330 )
                  (    -1         -1          0      )       (  0.3333340 )
                  (     0          0         -1      )       (  0.0000005 )

 cart.    s( 2) = (  1.0000000  0.0000000  0.0000000 )    f =( -0.5000000 )
                  (  0.0000000 -1.0000000  0.0000000 )       (  0.2886758 )
                  (  0.0000000  0.0000000 -1.0000000 )       (  0.0000044 )


      isym =  3     120 deg rotation - cryst. axis [0,0,1]       

 cryst.   s( 3) = (     0          1          0      )
                  (    -1         -1          0      )
                  (     0          0          1      )

 cart.    s( 3) = ( -0.5000000 -0.8660253  0.0000000 )
                  (  0.8660255 -0.5000000  0.0000000 )
                  (  0.0000000  0.0000000  1.0000000 )


      isym =  4     120 deg rotation - cryst. axis [0,0,-1]      

 cryst.   s( 4) = (    -1         -1          0      )
                  (     1          0          0      )
                  (     0          0          1      )

 cart.    s( 4) = ( -0.5000000  0.8660253  0.0000000 )
                  ( -0.8660255 -0.5000000  0.0000000 )
                  (  0.0000000  0.0000000  1.0000000 )


      isym =  5     180 deg rotation - cryst. axis [0,1,0]       

 cryst.   s( 5) = (    -1         -1          0      )    f =( -0.3333330 )
                  (     0          1          0      )       (  0.3333330 )
                  (     0          0         -1      )       (  0.0000005 )

 cart.    s( 5) = ( -0.5000000 -0.8660253  0.0000000 )    f =( -0.4999995 )
                  ( -0.8660255  0.5000000  0.0000000 )       (  0.2886749 )
                  (  0.0000000  0.0000000 -1.0000000 )       (  0.0000044 )


      isym =  6     180 deg rotation - cryst. axis [1,1,0]       

 cryst.   s( 6) = (     0          1          0      )    f =( -0.3333340 )
                  (     1          0          0      )       (  0.3333330 )
                  (     0          0         -1      )       (  0.0000005 )

 cart.    s( 6) = ( -0.5000000  0.8660253  0.0000000 )    f =( -0.5000005 )
                  (  0.8660255  0.5000000  0.0000000 )       (  0.2886749 )
                  (  0.0000000  0.0000000 -1.0000000 )       (  0.0000044 )


      isym =  7     inversion                                    

 cryst.   s( 7) = (    -1          0          0      )    f =( -0.3333330 )
                  (     0         -1          0      )       (  0.3333340 )
                  (     0          0         -1      )       (  0.0000005 )

 cart.    s( 7) = ( -1.0000000  0.0000000  0.0000000 )    f =( -0.5000000 )
                  (  0.0000000 -1.0000000  0.0000000 )       (  0.2886758 )
                  (  0.0000000  0.0000000 -1.0000000 )       (  0.0000044 )


      isym =  8     inv. 180 deg rotation - cart. axis [1,0,0]   

 cryst.   s( 8) = (    -1          0          0      )
                  (     1          1          0      )
                  (     0          0          1      )

 cart.    s( 8) = ( -1.0000000  0.0000000  0.0000000 )
                  (  0.0000000  1.0000000  0.0000000 )
                  (  0.0000000  0.0000000  1.0000000 )


      isym =  9     inv. 120 deg rotation - cryst. axis [0,0,1]  

 cryst.   s( 9) = (     0         -1          0      )    f =( -0.3333340 )
                  (     1          1          0      )       (  0.3333330 )
                  (     0          0         -1      )       (  0.0000005 )

 cart.    s( 9) = (  0.5000000  0.8660253  0.0000000 )    f =( -0.5000005 )
                  ( -0.8660255  0.5000000  0.0000000 )       (  0.2886749 )
                  (  0.0000000  0.0000000 -1.0000000 )       (  0.0000044 )


      isym = 10     inv. 120 deg rotation - cryst. axis [0,0,-1] 

 cryst.   s(10) = (     1          1          0      )    f =( -0.3333330 )
                  (    -1          0          0      )       (  0.3333330 )
                  (     0          0         -1      )       (  0.0000005 )

 cart.    s(10) = (  0.5000000 -0.8660253  0.0000000 )    f =( -0.4999995 )
                  (  0.8660255  0.5000000  0.0000000 )       (  0.2886749 )
                  (  0.0000000  0.0000000 -1.0000000 )       (  0.0000044 )


      isym = 11     inv. 180 deg rotation - cryst. axis [0,1,0]  

 cryst.   s(11) = (     1          1          0      )
                  (     0         -1          0      )
                  (     0          0          1      )

 cart.    s(11) = (  0.5000000  0.8660253  0.0000000 )
                  (  0.8660255 -0.5000000  0.0000000 )
                  (  0.0000000  0.0000000  1.0000000 )


      isym = 12     inv. 180 deg rotation - cryst. axis [1,1,0]  

 cryst.   s(12) = (     0         -1          0      )
                  (    -1          0          0      )
                  (     0          0          1      )

 cart.    s(12) = (  0.5000000 -0.8660253  0.0000000 )
                  ( -0.8660255 -0.5000000  0.0000000 )
                  (  0.0000000  0.0000000  1.0000000 )


   Cartesian axes

     site n.     atom                  positions (alat units)
         1           Te  tau(   1) = (   0.0000000   0.0000000   7.6884415  )
         2           Sb  tau(   2) = (   0.4999995   0.2886749   7.2936197  )
         3           Te  tau(   3) = (   0.0000000   0.5773497   6.8349907  )
         4           Sb  tau(   4) = (   0.0000000   0.0000000   6.3763617  )
         5           Te  tau(   5) = (   0.4999995   0.2886749   5.9815398  )
         6           Te  tau(   6) = (   0.0000000   0.5773497   5.2767118  )
         7           Sb  tau(   7) = (   0.0000000   0.0000000   4.8818899  )
         8           Te  tau(   8) = (   0.4999995   0.2886749   4.4232607  )
         9           Sb  tau(   9) = (   0.0000000   0.5773497   3.9646317  )
        10           Te  tau(  10) = (   0.0000000   0.0000000   3.5698099  )
        11           Te  tau(  11) = (   0.4999995   0.2886749   2.8649819  )
        12           Sb  tau(  12) = (   0.0000000   0.5773497   2.4701600  )
        13           Te  tau(  13) = (   0.0000000   0.0000000   2.0115310  )
        14           Sb  tau(  14) = (   0.4999995   0.2886749   1.5529062  )
        15           Te  tau(  15) = (   0.0000000   0.5773497   1.1580843  )

   Crystallographic axes

     site n.     atom                  positions (cryst. coord.)
         1           Te  tau(   1) = (  0.0000000  0.0000000  0.8690912  )
         2           Sb  tau(   2) = (  0.6666660  0.3333330  0.8244611  )
         3           Te  tau(   3) = (  0.3333330  0.6666660  0.7726182  )
         4           Sb  tau(   4) = (  0.0000000  0.0000000  0.7207754  )
         5           Te  tau(   5) = (  0.6666660  0.3333330  0.6761453  )
         6           Te  tau(   6) = (  0.3333330  0.6666660  0.5964725  )
         7           Sb  tau(   7) = (  0.0000000  0.0000000  0.5518423  )
         8           Te  tau(   8) = (  0.6666660  0.3333330  0.4999995  )
         9           Sb  tau(   9) = (  0.3333330  0.6666660  0.4481567  )
        10           Te  tau(  10) = (  0.0000000  0.0000000  0.4035266  )
        11           Te  tau(  11) = (  0.6666660  0.3333330  0.3238537  )
        12           Sb  tau(  12) = (  0.3333330  0.6666660  0.2792236  )
        13           Te  tau(  13) = (  0.0000000  0.0000000  0.2273808  )
        14           Sb  tau(  14) = (  0.6666660  0.3333330  0.1755384  )
        15           Te  tau(  15) = (  0.3333330  0.6666660  0.1309083  )

     number of k points=     4  Gaussian smearing, width (Ry)=  0.0100
                       cart. coord. in units 2pi/alat
        k(    1) = (   0.0000000   0.0000000   0.0000000), wk =   0.0625000
        k(    2) = (   0.0000000   0.2886751   0.0000000), wk =   0.3750000
        k(    3) = (   0.0000000  -0.5773502   0.0000000), wk =   0.1875000
        k(    4) = (   0.2500000   0.4330126   0.0000000), wk =   0.3750000

                       cryst. coord.
        k(    1) = (   0.0000000   0.0000000   0.0000000), wk =   0.0625000
        k(    2) = (   0.0000000   0.2500000   0.0000000), wk =   0.3750000
        k(    3) = (   0.0000000  -0.5000000   0.0000000), wk =   0.1875000
        k(    4) = (   0.2500000   0.2500000   0.0000000), wk =   0.3750000

     Dense  grid:   567491 G-vectors     FFT dimensions: (  54,  54, 480)

     Smooth grid:   406823 G-vectors     FFT dimensions: (  48,  48, 432)

     Dynamical RAM for                 wfc:     155.08 MB

     Dynamical RAM for     wfc (w. buffer):     775.39 MB

     Dynamical RAM for           str. fact:      17.32 MB

     Dynamical RAM for           local pot:       0.00 MB

     Dynamical RAM for          nlocal pot:     395.45 MB

     Dynamical RAM for                qrad:       8.41 MB

     Dynamical RAM for          rho,v,vnew:     232.06 MB

     Dynamical RAM for               rhoin:      77.35 MB

     Dynamical RAM for            rho*nmix:     554.19 MB

     Dynamical RAM for           G-vectors:      35.58 MB

     Dynamical RAM for          h,s,v(r/c):       1.83 MB

     Dynamical RAM for          <psi|beta>:       1.56 MB

     Dynamical RAM for                 psi:     310.16 MB

     Dynamical RAM for                hpsi:     310.16 MB

     Dynamical RAM for                spsi:     310.16 MB

     Dynamical RAM for      wfcinit/wfcrot:     279.47 MB

     Dynamical RAM for           addusdens:    5360.06 MB

     Estimated static dynamical RAM per process >       2.16 GB

     Estimated max dynamical RAM per process >       7.39 GB

     Initial potential from superposition of free atoms

     starting charge   83.99453, renormalised to   84.00000

     negative rho (up, down):  2.324E-07 0.000E+00
     Starting wfcs are  120 randomized atomic wfcs

     total cpu time spent up to now is       56.4 secs

     Self-consistent Calculation

     iteration #  1     ecut=    80.00 Ry     beta= 0.07
     Davidson diagonalization with overlap
     ethr =  1.00E-02,  avg # of iterations =  2.2

     Threshold (ethr) on eigenvalues was too large:
     Diagonalizing with lowered threshold

     Davidson diagonalization with overlap
     ethr =  3.22E-04,  avg # of iterations =  4.2

     negative rho (up, down):  1.246E-07 0.000E+00

     total cpu time spent up to now is      313.3 secs

     total energy              =    -376.56397728 Ry
     estimated scf accuracy    <       0.23211328 Ry

     iteration #  2     ecut=    80.00 Ry     beta= 0.07
     Davidson diagonalization with overlap
     ethr =  2.76E-04,  avg # of iterations =  1.0

     negative rho (up, down):  3.561E-08 0.000E+00

     total cpu time spent up to now is      423.1 secs

     total energy              =    -376.54047129 Ry
     estimated scf accuracy    <       0.15096979 Ry

     iteration #  3     ecut=    80.00 Ry     beta= 0.07
     Davidson diagonalization with overlap
     ethr =  1.80E-04,  avg # of iterations =  1.8

     negative rho (up, down):  2.090E-08 0.000E+00

     total cpu time spent up to now is      536.1 secs

     total energy              =    -376.54184910 Ry
     estimated scf accuracy    <       0.08366817 Ry

     iteration #  4     ecut=    80.00 Ry     beta= 0.07
     Davidson diagonalization with overlap
     ethr =  9.96E-05,  avg # of iterations =  4.2

     total cpu time spent up to now is      657.7 secs

     total energy              =    -376.53872478 Ry
     estimated scf accuracy    <       0.04231011 Ry

     iteration #  5     ecut=    80.00 Ry     beta= 0.07
     Davidson diagonalization with overlap
     ethr =  5.04E-05,  avg # of iterations =  4.5

     total cpu time spent up to now is      797.0 secs

     total energy              =    -376.55154913 Ry
     estimated scf accuracy    <       0.01652228 Ry

     iteration #  6     ecut=    80.00 Ry     beta= 0.07
     Davidson diagonalization with overlap
     ethr =  1.97E-05,  avg # of iterations =  2.0

     total cpu time spent up to now is      911.7 secs

     total energy              =    -376.55562278 Ry
     estimated scf accuracy    <       0.01627383 Ry

     iteration #  7     ecut=    80.00 Ry     beta= 0.07
     Davidson diagonalization with overlap
     ethr =  1.94E-05,  avg # of iterations =  3.0

     total cpu time spent up to now is     1037.3 secs

     total energy              =    -376.54713004 Ry
     estimated scf accuracy    <       0.03358826 Ry

     iteration #  8     ecut=    80.00 Ry     beta= 0.07
     Davidson diagonalization with overlap
     ethr =  1.94E-05,  avg # of iterations =  3.0

     total cpu time spent up to now is     1169.8 secs

     total energy              =    -376.54930842 Ry
     estimated scf accuracy    <       0.01385106 Ry

     iteration #  9     ecut=    80.00 Ry     beta= 0.07
     Davidson diagonalization with overlap
     ethr =  1.65E-05,  avg # of iterations =  2.0

     total cpu time spent up to now is     1287.3 secs

     total energy              =    -376.55071945 Ry
     estimated scf accuracy    <       0.00116658 Ry

     iteration # 10     ecut=    80.00 Ry     beta= 0.07
     Davidson diagonalization with overlap
     ethr =  1.39E-06,  avg # of iterations =  9.2

     total cpu time spent up to now is     1462.3 secs

     total energy              =    -376.55165115 Ry
     estimated scf accuracy    <       0.00094302 Ry

     iteration # 11     ecut=    80.00 Ry     beta= 0.07
     Davidson diagonalization with overlap
     ethr =  1.12E-06,  avg # of iterations =  9.0

     total cpu time spent up to now is     1633.6 secs

     total energy              =    -376.55323832 Ry
     estimated scf accuracy    <       0.01318944 Ry

     iteration # 12     ecut=    80.00 Ry     beta= 0.07
     Davidson diagonalization with overlap
     ethr =  1.12E-06,  avg # of iterations =  2.2

     total cpu time spent up to now is     1759.6 secs

     total energy              =    -376.55161133 Ry
     estimated scf accuracy    <       0.01215429 Ry

     iteration # 13     ecut=    80.00 Ry     beta= 0.07
     Davidson diagonalization with overlap
     ethr =  1.12E-06,  avg # of iterations =  4.5

     total cpu time spent up to now is     1894.3 secs

     total energy              =    -376.55190979 Ry
     estimated scf accuracy    <       0.00592764 Ry

     iteration # 14     ecut=    80.00 Ry     beta= 0.07
     Davidson diagonalization with overlap
     ethr =  1.12E-06,  avg # of iterations =  1.5

     total cpu time spent up to now is     2005.8 secs

     total energy              =    -376.55169219 Ry
     estimated scf accuracy    <       0.00671106 Ry

     iteration # 15     ecut=    80.00 Ry     beta= 0.07
     Davidson diagonalization with overlap
     ethr =  1.12E-06,  avg # of iterations =  1.0

     total cpu time spent up to now is     2116.8 secs

     total energy              =    -376.55115476 Ry
     estimated scf accuracy    <       0.00566054 Ry

     iteration # 16     ecut=    80.00 Ry     beta= 0.07
     Davidson diagonalization with overlap
     ethr =  1.12E-06,  avg # of iterations =  3.5

     total cpu time spent up to now is     2239.4 secs

     total energy              =    -376.55125785 Ry
     estimated scf accuracy    <       0.00247297 Ry

     iteration # 17     ecut=    80.00 Ry     beta= 0.07
     Davidson diagonalization with overlap
     ethr =  1.12E-06,  avg # of iterations =  1.2

     total cpu time spent up to now is     2350.4 secs

     total energy              =    -376.55115903 Ry
     estimated scf accuracy    <       0.00219417 Ry

     iteration # 18     ecut=    80.00 Ry     beta= 0.07
     Davidson diagonalization with overlap
     ethr =  1.12E-06,  avg # of iterations =  1.8

     total cpu time spent up to now is     2462.2 secs

     total energy              =    -376.55069827 Ry
     estimated scf accuracy    <       0.00161064 Ry

     iteration # 19     ecut=    80.00 Ry     beta= 0.07
     Davidson diagonalization with overlap
     ethr =  1.12E-06,  avg # of iterations =  6.2

     total cpu time spent up to now is     2616.5 secs

     total energy              =    -376.55116603 Ry
     estimated scf accuracy    <       0.00033581 Ry

     iteration # 20     ecut=    80.00 Ry     beta= 0.07
     Davidson diagonalization with overlap
     ethr =  4.00E-07,  avg # of iterations =  1.5

     total cpu time spent up to now is     2728.5 secs

     total energy              =    -376.55112774 Ry
     estimated scf accuracy    <       0.00019069 Ry

     iteration # 21     ecut=    80.00 Ry     beta= 0.07
     Davidson diagonalization with overlap
     ethr =  2.27E-07,  avg # of iterations =  2.0

     total cpu time spent up to now is     2846.2 secs

     total energy              =    -376.55116320 Ry
     estimated scf accuracy    <       0.00001988 Ry

     iteration # 22     ecut=    80.00 Ry     beta= 0.07
     Davidson diagonalization with overlap
     ethr =  2.37E-08,  avg # of iterations =  6.5

     total cpu time spent up to now is     2993.8 secs

     total energy              =    -376.55115742 Ry
     estimated scf accuracy    <       0.00008750 Ry

     iteration # 23     ecut=    80.00 Ry     beta= 0.07
     Davidson diagonalization with overlap
     ethr =  2.37E-08,  avg # of iterations =  2.2

     total cpu time spent up to now is     3111.0 secs

     total energy              =    -376.55115505 Ry
     estimated scf accuracy    <       0.00004249 Ry

     iteration # 24     ecut=    80.00 Ry     beta= 0.07
     Davidson diagonalization with overlap
     ethr =  2.37E-08,  avg # of iterations =  2.0

     total cpu time spent up to now is     3223.6 secs

     total energy              =    -376.55115667 Ry
     estimated scf accuracy    <       0.00002648 Ry

     iteration # 25     ecut=    80.00 Ry     beta= 0.07
     Davidson diagonalization with overlap
     ethr =  2.37E-08,  avg # of iterations =  1.0

     total cpu time spent up to now is     3333.7 secs

     total energy              =    -376.55115414 Ry
     estimated scf accuracy    <       0.00002703 Ry

     iteration # 26     ecut=    80.00 Ry     beta= 0.07
     Davidson diagonalization with overlap
     ethr =  2.37E-08,  avg # of iterations =  2.0

     total cpu time spent up to now is     3447.3 secs

     total energy              =    -376.55115315 Ry
     estimated scf accuracy    <       0.00001426 Ry

     iteration # 27     ecut=    80.00 Ry     beta= 0.07
     Davidson diagonalization with overlap
     ethr =  1.70E-08,  avg # of iterations =  3.0

     total cpu time spent up to now is     3566.3 secs

     total energy              =    -376.55115202 Ry
     estimated scf accuracy    <       0.00000457 Ry

     iteration # 28     ecut=    80.00 Ry     beta= 0.07
     Davidson diagonalization with overlap
     ethr =  5.44E-09,  avg # of iterations =  9.5

     total cpu time spent up to now is     3753.7 secs

     total energy              =    -376.55115529 Ry
     estimated scf accuracy    <       0.00002111 Ry

     iteration # 29     ecut=    80.00 Ry     beta= 0.07
     Davidson diagonalization with overlap
     ethr =  5.44E-09,  avg # of iterations =  2.0

     total cpu time spent up to now is     3875.2 secs

     total energy              =    -376.55115466 Ry
     estimated scf accuracy    <       0.00000646 Ry

     iteration # 30     ecut=    80.00 Ry     beta= 0.07
     Davidson diagonalization with overlap
     ethr =  5.44E-09,  avg # of iterations =  3.0

     total cpu time spent up to now is     3994.3 secs

     total energy              =    -376.55115541 Ry
     estimated scf accuracy    <       0.00000165 Ry

     iteration # 31     ecut=    80.00 Ry     beta= 0.07
     Davidson diagonalization with overlap
     ethr =  1.97E-09,  avg # of iterations =  2.8

     total cpu time spent up to now is     4110.5 secs

     total energy              =    -376.55115547 Ry
     estimated scf accuracy    <       0.00000225 Ry

     iteration # 32     ecut=    80.00 Ry     beta= 0.07
     Davidson diagonalization with overlap
     ethr =  1.97E-09,  avg # of iterations =  2.0

     total cpu time spent up to now is     4223.8 secs

     total energy              =    -376.55115512 Ry
     estimated scf accuracy    <       0.00000174 Ry

     iteration # 33     ecut=    80.00 Ry     beta= 0.07
     Davidson diagonalization with overlap
     ethr =  1.97E-09,  avg # of iterations =  6.0

     total cpu time spent up to now is     4360.5 secs

     End of self-consistent calculation

          k = 0.0000 0.0000 0.0000 ( 50865 PWs)   bands (ev):

    -9.0677  -9.0677  -9.0008  -9.0008  -8.9735  -8.9735  -8.5748  -8.5748
    -8.4499  -8.4499  -8.3844  -8.3844  -7.5210  -7.5210  -7.3925  -7.3925
    -7.3256  -7.3256  -4.8627  -4.8627  -4.6828  -4.6828  -4.5385  -4.5385
    -3.4065  -3.4065  -3.2171  -3.2171  -3.0882  -3.0882   0.8365   0.8365
     1.0448   1.0448   1.2559   1.2559   1.5133   1.5133   1.6576   1.6576
     1.7388   1.7388   1.7607   1.7607   1.8530   1.8530   1.9967   1.9967
     2.1292   2.1292   2.1489   2.1489   2.1761   2.1761   2.1788   2.1788
     2.1875   2.1875   2.3009   2.3009   2.3089   2.3089   2.3220   2.3220
     2.3989   2.3989   2.4183   2.4183   2.5422   2.5422   2.8910   2.8910
     2.9048   2.9048   2.9746   2.9746   2.9792   2.9792   3.0009   3.0009
     3.4586   3.4586   3.6826   3.6826   3.7651   3.7651   3.9140   3.9140
     3.9687   3.9687   4.3332   4.3332   4.4817   4.4817   4.6045   4.6045
     4.6211   4.6212   4.7315   4.7315

     occupation numbers 
     1.0000   1.0000   1.0000   1.0000   1.0000   1.0000   1.0000   1.0000
     1.0000   1.0000   1.0000   1.0000   1.0000   1.0000   1.0000   1.0000
     1.0000   1.0000   1.0000   1.0000   1.0000   1.0000   1.0000   1.0000
     1.0000   1.0000   1.0000   1.0000   1.0000   1.0000   1.0000   1.0000
     1.0000   1.0000   1.0000   1.0000   1.0000   1.0000   1.0000   1.0000
     1.0000   1.0000   1.0000   1.0000   1.0000   1.0000   1.0000   1.0000
     1.0000   1.0000   1.0000   1.0000   1.0000   1.0000   1.0000   1.0000
     1.0000   1.0000   1.0000   1.0000   1.0000   1.0000   1.0000   1.0000
     1.0000   1.0000   1.0000   1.0000   1.0000   1.0000   1.0000   1.0000
     1.0000   1.0000   1.0000   1.0000   1.0000   1.0000   1.0000   1.0000
     0.9987   0.9987   0.7502   0.7502   0.4275   0.4275   0.0418   0.0418
     0.0108   0.0108   0.0000   0.0000   0.0000   0.0000   0.0000   0.0000
     0.0000   0.0000   0.0000   0.0000

          k = 0.0000 0.2887 0.0000 ( 50878 PWs)   bands (ev):

    -8.5413  -8.5413  -8.4755  -8.4754  -8.4488  -8.4488  -8.1011  -8.1011
    -7.9810  -7.9810  -7.9208  -7.9208  -7.2436  -7.2436  -7.1338  -7.1338
    -7.0859  -7.0859  -4.9377  -4.9377  -4.8321  -4.8321  -4.7693  -4.7692
    -4.1357  -4.1357  -4.0528  -4.0528  -4.0194  -4.0194  -0.5645  -0.5645
    -0.4540  -0.4539  -0.3670  -0.3667   0.1794   0.1795   0.3641   0.3646
     0.4067   0.4075   0.4816   0.4819   0.6091   0.6093   0.8023   0.8028
     0.9794   0.9794   1.0372   1.0382   1.0793   1.0807   1.2928   1.2931
     1.3379   1.3382   1.4194   1.4194   1.6563   1.6563   1.8035   1.8035
     2.0376   2.0376   2.1732   2.1732   2.2991   2.2991   2.4562   2.4564
     2.5856   2.5857   2.7375   2.7376   2.8702   2.8703   3.1413   3.1414
     3.3823   3.3824   3.5769   3.5769   4.2850   4.2850   4.5224   4.5224
     4.7474   4.7474   4.9243   4.9243   5.0860   5.0861   5.2454   5.2455
     5.3128   5.3128   5.5197   5.5198

     occupation numbers 
     1.0000   1.0000   1.0000   1.0000   1.0000   1.0000   1.0000   1.0000
     1.0000   1.0000   1.0000   1.0000   1.0000   1.0000   1.0000   1.0000
     1.0000   1.0000   1.0000   1.0000   1.0000   1.0000   1.0000   1.0000
     1.0000   1.0000   1.0000   1.0000   1.0000   1.0000   1.0000   1.0000
     1.0000   1.0000   1.0000   1.0000   1.0000   1.0000   1.0000   1.0000
     1.0000   1.0000   1.0000   1.0000   1.0000   1.0000   1.0000   1.0000
     1.0000   1.0000   1.0000   1.0000   1.0000   1.0000   1.0000   1.0000
     1.0000   1.0000   1.0000   1.0000   1.0000   1.0000   1.0000   1.0000
     1.0000   1.0000   1.0000   1.0000   1.0000   1.0000   1.0000   1.0000
     1.0000   1.0000   1.0000   1.0000   1.0000   1.0000   1.0000   1.0000
     0.9999   0.9999   0.9620   0.9619   0.0000   0.0000   0.0000   0.0000
     0.0000   0.0000   0.0000   0.0000   0.0000   0.0000   0.0000   0.0000
     0.0000   0.0000   0.0000   0.0000

          k = 0.0000-0.5774 0.0000 ( 50824 PWs)   bands (ev):

    -7.3692  -7.3692  -7.3538  -7.3538  -7.2928  -7.2928  -7.2588  -7.2588
    -7.2559  -7.2559  -7.2522  -7.2522  -7.2380  -7.2380  -7.1852  -7.1852
    -7.1834  -7.1834  -5.6661  -5.6661  -5.6084  -5.6084  -5.5876  -5.5876
    -5.0934  -5.0934  -5.0348  -5.0348  -5.0181  -5.0181  -1.5416  -1.5416
    -1.4350  -1.4350  -1.3690  -1.3690  -0.3545  -0.3545  -0.2030  -0.2030
    -0.0962  -0.0962  -0.0694  -0.0694   0.0315   0.0315   0.0982   0.0982
     0.4152   0.4152   0.4937   0.4937   0.5407   0.5407   0.6767   0.6767
     0.8711   0.8711   0.9804   0.9804   1.1280   1.1280   1.3668   1.3668
     1.6533   1.6533   1.6576   1.6576   1.8556   1.8556   1.8878   1.8878
     2.4918   2.4918   2.5680   2.5680   2.5733   2.5733   2.7120   2.7120
     2.8300   2.8300   3.1123   3.1123   4.2937   4.2937   4.5388   4.5388
     4.7073   4.7073   4.8722   4.8722   4.9921   4.9921   5.2204   5.2204
     5.3196   5.3196   5.4388   5.4388

     occupation numbers 
     1.0000   1.0000   1.0000   1.0000   1.0000   1.0000   1.0000   1.0000
     1.0000   1.0000   1.0000   1.0000   1.0000   1.0000   1.0000   1.0000
     1.0000   1.0000   1.0000   1.0000   1.0000   1.0000   1.0000   1.0000
     1.0000   1.0000   1.0000   1.0000   1.0000   1.0000   1.0000   1.0000
     1.0000   1.0000   1.0000   1.0000   1.0000   1.0000   1.0000   1.0000
     1.0000   1.0000   1.0000   1.0000   1.0000   1.0000   1.0000   1.0000
     1.0000   1.0000   1.0000   1.0000   1.0000   1.0000   1.0000   1.0000
     1.0000   1.0000   1.0000   1.0000   1.0000   1.0000   1.0000   1.0000
     1.0000   1.0000   1.0000   1.0000   1.0000   1.0000   1.0000   1.0000
     1.0000   1.0000   1.0000   1.0000   1.0000   1.0000   1.0000   1.0000
     1.0000   1.0000   1.0000   1.0000   0.0000   0.0000   0.0000   0.0000
     0.0000   0.0000   0.0000   0.0000   0.0000   0.0000   0.0000   0.0000
     0.0000   0.0000   0.0000   0.0000

          k = 0.2500 0.4330 0.0000 ( 50758 PWs)   bands (ev):

    -7.6226  -7.6226  -7.5629  -7.5629  -7.5404  -7.5404  -7.3546  -7.3546
    -7.2580  -7.2579  -7.2229  -7.2229  -6.9765  -6.9765  -6.9061  -6.9059
    -6.8967  -6.8965  -5.4103  -5.4102  -5.3729  -5.3716  -5.3699  -5.3686
    -5.2651  -5.2651  -5.2235  -5.2224  -5.2214  -5.2203  -1.0078  -1.0078
    -0.9400  -0.9398  -0.8708  -0.8704  -0.8637  -0.8633  -0.7878  -0.7873
    -0.7602  -0.7598  -0.2044  -0.2044  -0.0031  -0.0029   0.0664   0.0665
     0.1033   0.1040   0.1349   0.1357   0.2840   0.2842   0.3080   0.3088
     0.4386   0.4389   0.5540   0.5541   0.9551   0.9553   1.2036   1.2037
     1.3904   1.3905   1.9395   1.9395   2.1327   2.1328   2.2983   2.2985
     2.5215   2.5215   2.6612   2.6615   2.7716   2.7726   2.9347   2.9358
     3.0573   3.0576   3.1587   3.1588   4.8838   4.8839   4.9363   4.9363
     4.9518   4.9519   5.1098   5.1102   5.2180   5.2185   5.3918   5.3919
     5.6422   5.6425   5.7641   5.7645

     occupation numbers 
     1.0000   1.0000   1.0000   1.0000   1.0000   1.0000   1.0000   1.0000
     1.0000   1.0000   1.0000   1.0000   1.0000   1.0000   1.0000   1.0000
     1.0000   1.0000   1.0000   1.0000   1.0000   1.0000   1.0000   1.0000
     1.0000   1.0000   1.0000   1.0000   1.0000   1.0000   1.0000   1.0000
     1.0000   1.0000   1.0000   1.0000   1.0000   1.0000   1.0000   1.0000
     1.0000   1.0000   1.0000   1.0000   1.0000   1.0000   1.0000   1.0000
     1.0000   1.0000   1.0000   1.0000   1.0000   1.0000   1.0000   1.0000
     1.0000   1.0000   1.0000   1.0000   1.0000   1.0000   1.0000   1.0000
     1.0000   1.0000   1.0000   1.0000   1.0000   1.0000   1.0000   1.0000
     1.0000   1.0000   1.0000   1.0000   1.0000   1.0000   1.0000   1.0000
     1.0000   1.0000   1.0000   1.0000   0.0000   0.0000   0.0000   0.0000
     0.0000   0.0000   0.0000   0.0000   0.0000   0.0000   0.0000   0.0000
     0.0000   0.0000   0.0000   0.0000

     the Fermi energy is     3.7475 ev

!    total energy              =    -376.55115551 Ry
     estimated scf accuracy    <       0.00000006 Ry
     smearing contrib. (-TS)   =      -0.00117604 Ry
     internal energy E=F+TS    =    -376.54997947 Ry

     The total energy is F=E-TS. E is the sum of the following terms:
     one-electron contribution =    -617.51836219 Ry
     hartree contribution      =     341.31762395 Ry
     xc contribution           =    -222.13274578 Ry
     ewald contribution        =     121.78350455 Ry

     convergence has been achieved in  33 iterations

     Writing output data file ./tmp/Sb2Te3.save/

     init_run     :    350.47s CPU     56.06s WALL (       1 calls)
     electrons    :  28726.57s CPU   4304.21s WALL (       1 calls)

     Called by init_run:
     wfcinit      :    324.67s CPU     39.60s WALL (       1 calls)
     wfcinit:atom :      0.23s CPU      0.42s WALL (       4 calls)
     wfcinit:wfcr :    321.95s CPU     36.71s WALL (       4 calls)
     potinit      :      4.33s CPU      2.92s WALL (       1 calls)
     hinit0       :      4.69s CPU      4.72s WALL (       1 calls)

     Called by electrons:
     c_bands      :  25847.53s CPU   3186.28s WALL (      34 calls)
     sum_band     :   2077.53s CPU    785.08s WALL (      34 calls)
     v_of_rho     :     60.23s CPU     22.50s WALL (      34 calls)
     v_h          :      4.24s CPU      1.38s WALL (      34 calls)
     v_xc         :     55.99s CPU     21.12s WALL (      34 calls)
     newd         :    674.82s CPU    286.39s WALL (      34 calls)
     mix_rho      :     20.36s CPU     21.55s WALL (      34 calls)

     Called by c_bands:
     init_us_2    :     50.48s CPU     23.69s WALL (     276 calls)
     cegterg      :  25325.01s CPU   2685.85s WALL (     136 calls)

     Called by sum_band:
     sum_band:wei :      0.00s CPU      0.01s WALL (      34 calls)
     sum_band:loo :   1150.72s CPU    490.91s WALL (      34 calls)
     sum_band:buf :     24.37s CPU      4.67s WALL (     136 calls)
     sum_band:ini :     36.19s CPU     12.41s WALL (     136 calls)
     sum_band:cal :    608.78s CPU     19.93s WALL (     136 calls)
     sum_band:bec :     32.85s CPU      4.44s WALL (     136 calls)
     addusdens    :    904.50s CPU    286.89s WALL (      34 calls)
     addusd:skk   :      0.79s CPU      0.93s WALL (      68 calls)
     addusd:dgemm :    636.97s CPU     34.86s WALL (      68 calls)
     addusd:qvan2 :    260.86s CPU    230.90s WALL (      68 calls)

     Called by *egterg:
     cdiaghg      :     74.98s CPU      8.84s WALL (     587 calls)
     cegterg:over :   1529.08s CPU     54.73s WALL (     455 calls)
     cegterg:upda :    720.46s CPU     28.78s WALL (     455 calls)
     cegterg:last :   1241.53s CPU     46.94s WALL (     280 calls)
     h_psi        :  19430.60s CPU   2443.00s WALL (     595 calls)
     s_psi        :   1735.15s CPU     60.22s WALL (     595 calls)
     g_psi        :    106.55s CPU     16.62s WALL (     455 calls)

     Called by h_psi:
     h_psi:calbec :   1629.38s CPU     53.20s WALL (     595 calls)
     vloc_psi     :  16003.88s CPU   2309.88s WALL (     595 calls)
     add_vuspsi   :   1764.31s CPU     61.42s WALL (     595 calls)

     General routines
     calbec       :   2238.07s CPU     73.13s WALL (     731 calls)
     fft          :     69.30s CPU     20.89s WALL (     738 calls)
     ffts         :     35.62s CPU      6.49s WALL (     272 calls)
     fftw         :  13317.16s CPU   2146.20s WALL (  163140 calls)
     interpolate  :     63.70s CPU     10.26s WALL (     136 calls)

     Parallel routines

     PWSCF        :      8h 4m CPU      1h12m WALL


   This run was terminated on:  22:40:24  13Jun2023            

=------------------------------------------------------------------------------=
   JOB DONE.
=------------------------------------------------------------------------------=
